 Entering Link 1 = C:\data\G09W\l1.exe PID=      1244.
  
 Copyright (c) 1988,1990,1992,1993,1995,1998,2003,2009,2013,
            Gaussian, Inc.  All Rights Reserved.
  
 This is part of the Gaussian(R) 09 program.  It is based on
 the Gaussian(R) 03 system (copyright 2003, Gaussian, Inc.),
 the Gaussian(R) 98 system (copyright 1998, Gaussian, Inc.),
 the Gaussian(R) 94 system (copyright 1995, Gaussian, Inc.),
 the Gaussian 92(TM) system (copyright 1992, Gaussian, Inc.),
 the Gaussian 90(TM) system (copyright 1990, Gaussian, Inc.),
 the Gaussian 88(TM) system (copyright 1988, Gaussian, Inc.),
 the Gaussian 86(TM) system (copyright 1986, Carnegie Mellon
 University), and the Gaussian 82(TM) system (copyright 1983,
 Carnegie Mellon University). Gaussian is a federally registered
 trademark of Gaussian, Inc.
  
 This software contains proprietary and confidential information,
 including trade secrets, belonging to Gaussian, Inc.
  
 This software is provided under written license and may be
 used, copied, transmitted, or stored only in accord with that
 written license.
  
 The following legend is applicable only to US Government
 contracts under FAR:
  
                    RESTRICTED RIGHTS LEGEND
  
 Use, reproduction and disclosure by the US Government is
 subject to restrictions as set forth in subparagraphs (a)
 and (c) of the Commercial Computer Software - Restricted
 Rights clause in FAR 52.227-19.
  
 Gaussian, Inc.
 340 Quinnipiac St., Bldg. 40, Wallingford CT 06492
  
  
 ---------------------------------------------------------------
 Warning -- This program may not be used in any manner that
 competes with the business of Gaussian, Inc. or will provide
 assistance to any competitor of Gaussian, Inc.  The licensee
 of this program is prohibited from giving any competitor of
 Gaussian, Inc. access to this program.  By using this program,
 the user acknowledges that Gaussian, Inc. is engaged in the
 business of creating and licensing software in the field of
 computational chemistry and represents and warrants to the
 licensee that it is not a competitor of Gaussian, Inc. and that
 it will not use this program in any manner prohibited above.
 ---------------------------------------------------------------
  

 Cite this work as:
 Gaussian 09, Revision D.01,
 M. J. Frisch, G. W. Trucks, H. B. Schlegel, G. E. Scuseria, 
 M. A. Robb, J. R. Cheeseman, G. Scalmani, V. Barone, B. Mennucci, 
 G. A. Petersson, H. Nakatsuji, M. Caricato, X. Li, H. P. Hratchian, 
 A. F. Izmaylov, J. Bloino, G. Zheng, J. L. Sonnenberg, M. Hada, 
 M. Ehara, K. Toyota, R. Fukuda, J. Hasegawa, M. Ishida, T. Nakajima, 
 Y. Honda, O. Kitao, H. Nakai, T. Vreven, J. A. Montgomery, Jr., 
 J. E. Peralta, F. Ogliaro, M. Bearpark, J. J. Heyd, E. Brothers, 
 K. N. Kudin, V. N. Staroverov, T. Keith, R. Kobayashi, J. Normand, 
 K. Raghavachari, A. Rendell, J. C. Burant, S. S. Iyengar, J. Tomasi, 
 M. Cossi, N. Rega, J. M. Millam, M. Klene, J. E. Knox, J. B. Cross, 
 V. Bakken, C. Adamo, J. Jaramillo, R. Gomperts, R. E. Stratmann, 
 O. Yazyev, A. J. Austin, R. Cammi, C. Pomelli, J. W. Ochterski, 
 R. L. Martin, K. Morokuma, V. G. Zakrzewski, G. A. Voth, 
 P. Salvador, J. J. Dannenberg, S. Dapprich, A. D. Daniels, 
 O. Farkas, J. B. Foresman, J. V. Ortiz, J. Cioslowski, 
 and D. J. Fox, Gaussian, Inc., Wallingford CT, 2013.
 
 ******************************************
 Gaussian 09:  EM64W-G09RevD.01 13-Apr-2013
                01-Apr-2022 
 ******************************************
 %NProcShared=8
 Will use up to    8 processors via shared memory.
 %mem=16GB
 %Chk=mea.chk
 ----------------------------------
 # B3LYP/6-31+G(d,p) opt freq=Raman
 ----------------------------------
 1/14=-1,18=20,19=15,26=3,38=1/1,3;
 2/9=110,12=2,17=6,18=5,40=1/2;
 3/5=1,6=6,7=111,11=2,16=1,25=1,30=1,71=1,74=-5/1,2,3;
 4//1;
 5/5=2,38=5/2;
 6/7=2,8=2,9=2,10=2,28=1/1;
 7//1,2,3,16;
 1/14=-1,18=20,19=15,26=3/3(2);
 2/9=110/2;
 99//99;
 2/9=110/2;
 3/5=1,6=6,7=111,11=2,16=1,25=1,30=1,71=1,74=-5/1,2,3;
 4/5=5,16=3,69=1/1;
 5/5=2,38=5/2;
 7//1,2,3,16;
 1/14=-1,18=20,19=15,26=3/3(-5);
 2/9=110/2;
 6/7=2,8=2,9=2,10=2,19=2,28=1/1;
 99/9=1/99;
 -----------------------
 2-methoxyethyl acrylate
 -----------------------
 Symbolic Z-matrix:
 Charge =  0 Multiplicity = 1
 C                    0    -0.5414    3.5058    0.0007 
 C                    0     0.4809    2.3846    0.0002 
 O                    0    -0.138     1.1706    0. 
 C                    0     0.6792    0.0297   -0.0006 
 C                    0    -0.2071   -1.2071    0. 
 O                    0     0.6111   -2.3517   -0.0011 
 C                    0    -0.1411   -3.5461   -0.0003 
 O                    0     1.6782    2.5636    0. 
 H                    0    -1.5898    3.1316    0.0006 
 H                    0    -0.3997    4.1401    0.9049 
 H                    0    -0.3998    4.1409   -0.903 
 H                    0     1.3201    0.038    -0.9133 
 H                    0     1.3214    0.0378    0.9112 
 H                    0    -0.8507   -1.2129    0.9102 
 H                    0    -0.8522   -1.2125   -0.9092 
 H                    0     0.5715   -4.4011   -0.0014 
 H                    0    -0.7701   -3.6058    0.9156 
 H                    0    -0.7725   -3.6054   -0.9145 
 

 GradGradGradGradGradGradGradGradGradGradGradGradGradGradGradGradGradGrad
 Berny optimization.
 Initialization pass.
                           ----------------------------
                           !    Initial Parameters    !
                           ! (Angstroms and Degrees)  !
 --------------------------                            --------------------------
 ! Name  Definition              Value          Derivative Info.                !
 --------------------------------------------------------------------------------
 ! R1    R(1,2)                  1.5173         estimate D2E/DX2                !
 ! R2    R(1,9)                  1.1132         estimate D2E/DX2                !
 ! R3    R(1,10)                 1.1135         estimate D2E/DX2                !
 ! R4    R(1,11)                 1.1136         estimate D2E/DX2                !
 ! R5    R(2,3)                  1.3627         estimate D2E/DX2                !
 ! R6    R(2,8)                  1.2106         estimate D2E/DX2                !
 ! R7    R(3,4)                  1.4034         estimate D2E/DX2                !
 ! R8    R(4,5)                  1.5216         estimate D2E/DX2                !
 ! R9    R(4,12)                 1.1153         estimate D2E/DX2                !
 ! R10   R(4,13)                 1.1153         estimate D2E/DX2                !
 ! R11   R(5,6)                  1.407          estimate D2E/DX2                !
 ! R12   R(5,14)                 1.1148         estimate D2E/DX2                !
 ! R13   R(5,15)                 1.1148         estimate D2E/DX2                !
 ! R14   R(6,7)                  1.4115         estimate D2E/DX2                !
 ! R15   R(7,16)                 1.113          estimate D2E/DX2                !
 ! R16   R(7,17)                 1.1127         estimate D2E/DX2                !
 ! R17   R(7,18)                 1.1126         estimate D2E/DX2                !
 ! A1    A(2,1,9)              112.7155         estimate D2E/DX2                !
 ! A2    A(2,1,10)             109.5998         estimate D2E/DX2                !
 ! A3    A(2,1,11)             109.6026         estimate D2E/DX2                !
 ! A4    A(9,1,10)             108.1435         estimate D2E/DX2                !
 ! A5    A(9,1,11)             108.1436         estimate D2E/DX2                !
 ! A6    A(10,1,11)            108.5365         estimate D2E/DX2                !
 ! A7    A(1,2,3)              110.6291         estimate D2E/DX2                !
 ! A8    A(1,2,8)              123.8554         estimate D2E/DX2                !
 ! A9    A(3,2,8)              125.5155         estimate D2E/DX2                !
 ! A10   A(2,3,4)              117.3743         estimate D2E/DX2                !
 ! A11   A(3,4,5)              108.7612         estimate D2E/DX2                !
 ! A12   A(3,4,12)             109.2037         estimate D2E/DX2                !
 ! A13   A(3,4,13)             109.2111         estimate D2E/DX2                !
 ! A14   A(5,4,12)             109.944          estimate D2E/DX2                !
 ! A15   A(5,4,13)             109.937          estimate D2E/DX2                !
 ! A16   A(12,4,13)            109.7611         estimate D2E/DX2                !
 ! A17   A(4,5,6)              108.8158         estimate D2E/DX2                !
 ! A18   A(4,5,14)             109.9282         estimate D2E/DX2                !
 ! A19   A(4,5,15)             109.9181         estimate D2E/DX2                !
 ! A20   A(6,5,14)             109.3991         estimate D2E/DX2                !
 ! A21   A(6,5,15)             109.386          estimate D2E/DX2                !
 ! A22   A(14,5,15)            109.3773         estimate D2E/DX2                !
 ! A23   A(5,6,7)              112.2399         estimate D2E/DX2                !
 ! A24   A(6,7,16)             107.9888         estimate D2E/DX2                !
 ! A25   A(6,7,17)             110.3109         estimate D2E/DX2                !
 ! A26   A(6,7,18)             110.3067         estimate D2E/DX2                !
 ! A27   A(16,7,17)            108.755          estimate D2E/DX2                !
 ! A28   A(16,7,18)            108.758          estimate D2E/DX2                !
 ! A29   A(17,7,18)            110.6515         estimate D2E/DX2                !
 ! D1    D(9,1,2,3)             -0.0116         estimate D2E/DX2                !
 ! D2    D(9,1,2,8)            179.9878         estimate D2E/DX2                !
 ! D3    D(10,1,2,3)           120.48           estimate D2E/DX2                !
 ! D4    D(10,1,2,8)           -59.5206         estimate D2E/DX2                !
 ! D5    D(11,1,2,3)          -120.5052         estimate D2E/DX2                !
 ! D6    D(11,1,2,8)            59.4942         estimate D2E/DX2                !
 ! D7    D(1,2,3,4)            179.9938         estimate D2E/DX2                !
 ! D8    D(8,2,3,4)             -0.0056         estimate D2E/DX2                !
 ! D9    D(2,3,4,5)            179.971          estimate D2E/DX2                !
 ! D10   D(2,3,4,12)           -60.0436         estimate D2E/DX2                !
 ! D11   D(2,3,4,13)            59.9898         estimate D2E/DX2                !
 ! D12   D(3,4,5,6)            179.9785         estimate D2E/DX2                !
 ! D13   D(3,4,5,14)           -60.2341         estimate D2E/DX2                !
 ! D14   D(3,4,5,15)            60.2132         estimate D2E/DX2                !
 ! D15   D(12,4,5,6)            60.4536         estimate D2E/DX2                !
 ! D16   D(12,4,5,14)         -179.759          estimate D2E/DX2                !
 ! D17   D(12,4,5,15)          -59.3117         estimate D2E/DX2                !
 ! D18   D(13,4,5,6)           -60.4917         estimate D2E/DX2                !
 ! D19   D(13,4,5,14)           59.2957         estimate D2E/DX2                !
 ! D20   D(13,4,5,15)          179.743          estimate D2E/DX2                !
 ! D21   D(4,5,6,7)            179.9857         estimate D2E/DX2                !
 ! D22   D(14,5,6,7)            59.8702         estimate D2E/DX2                !
 ! D23   D(15,5,6,7)           -59.919          estimate D2E/DX2                !
 ! D24   D(5,6,7,16)           179.9916         estimate D2E/DX2                !
 ! D25   D(5,6,7,17)           -61.2811         estimate D2E/DX2                !
 ! D26   D(5,6,7,18)            61.2631         estimate D2E/DX2                !
 --------------------------------------------------------------------------------
 Trust Radius=3.00D-01 FncErr=1.00D-07 GrdErr=1.00D-06
 Number of steps in this run=     82 maximum allowed number of steps=    108.
 GradGradGradGradGradGradGradGradGradGradGradGradGradGradGradGradGradGrad

                          Input orientation:                          
 ---------------------------------------------------------------------
 Center     Atomic      Atomic             Coordinates (Angstroms)
 Number     Number       Type             X           Y           Z
 ---------------------------------------------------------------------
      1          6           0       -0.541400    3.505800    0.000700
      2          6           0        0.480900    2.384600    0.000200
      3          8           0       -0.138000    1.170600    0.000000
      4          6           0        0.679200    0.029700   -0.000600
      5          6           0       -0.207100   -1.207100    0.000000
      6          8           0        0.611100   -2.351700   -0.001100
      7          6           0       -0.141100   -3.546100   -0.000300
      8          8           0        1.678200    2.563600    0.000000
      9          1           0       -1.589800    3.131600    0.000600
     10          1           0       -0.399700    4.140100    0.904900
     11          1           0       -0.399800    4.140900   -0.903000
     12          1           0        1.320100    0.038000   -0.913300
     13          1           0        1.321400    0.037800    0.911200
     14          1           0       -0.850700   -1.212900    0.910200
     15          1           0       -0.852200   -1.212500   -0.909200
     16          1           0        0.571500   -4.401100   -0.001400
     17          1           0       -0.770100   -3.605800    0.915600
     18          1           0       -0.772500   -3.605400   -0.914500
 ---------------------------------------------------------------------
                    Distance matrix (angstroms):
                    1          2          3          4          5
     1  C    0.000000
     2  C    1.517296   0.000000
     3  O    2.369787   1.362657   0.000000
     4  C    3.684174   2.363235   1.403378   0.000000
     5  C    4.724742   3.657001   2.378704   1.521579   0.000000
     6  O    5.969804   4.738089   3.601076   2.382374   1.406969
     7  C    7.063252   5.963228   4.716701   3.668683   2.339931
     8  O    2.411300   1.210607   2.288893   2.723720   4.215748
     9  H    1.113179   2.201320   2.439927   3.843195   4.553699
    10  H    1.113550   2.162341   3.115327   4.345037   5.426646
    11  H    1.113587   2.162404   3.115547   4.345173   5.427121
    12  H    4.040571   2.654293   2.059844   1.115277   2.171804
    13  H    4.040552   2.654022   2.059944   1.115287   2.171721
    14  H    4.815494   3.942495   2.649052   2.171222   1.114773
    15  H    4.815275   3.942498   2.648753   2.171129   1.114822
    16  H    7.984837   6.786305   5.616692   4.432109   3.287530
    17  H    7.173855   6.187718   4.904271   4.019546   2.628508
    18  H    7.173574   6.187713   4.903986   4.019527   2.628275
                    6          7          8          9         10
     6  O    0.000000
     7  C    1.411523   0.000000
     8  O    5.029799   6.374817   0.000000
     9  H    5.908514   6.833038   3.316994   0.000000
    10  H    6.632196   7.743638   2.760772   1.803100   0.000000
    11  H    6.632435   7.744144   2.760683   1.803130   1.807900
    12  H    2.654328   3.976738   2.709429   4.344317   4.805287
    13  H    2.654530   3.976692   2.708737   4.344638   4.448718
    14  H    2.064992   2.603145   4.635273   4.499813   5.371968
    15  H    2.064865   2.603354   4.635569   4.499222   5.669748
    16  H    2.049783   1.113025   7.052080   7.836631   8.643883
    17  H    2.078658   1.112689   6.700298   6.848481   7.754758
    18  H    2.078560   1.112629   6.700657   6.847814   7.965047
                   11         12         13         14         15
    11  H    0.000000
    12  H    4.448815   0.000000
    13  H    4.805131   1.824500   0.000000
    14  H    5.670466   3.098754   2.506446   0.000000
    15  H    5.372485   2.506522   3.098652   1.819401   0.000000
    16  H    8.644193   4.593209   4.593367   3.608086   3.608073
    17  H    7.965914   4.581603   4.201216   2.394263   3.010734
    18  H    7.755269   4.201588   4.581539   3.009934   2.394233
                   16         17         18
    16  H    0.000000
    17  H    1.809221   0.000000
    18  H    1.809206   1.830102   0.000000
 Stoichiometry    C5H10O3
 Framework group  C1[X(C5H10O3)]
 Deg. of freedom    48
 Full point group                 C1      NOp   1
 Largest Abelian subgroup         C1      NOp   1
 Largest concise Abelian subgroup C1      NOp   1
                         Standard orientation:                         
 ---------------------------------------------------------------------
 Center     Atomic      Atomic             Coordinates (Angstroms)
 Number     Number       Type             X           Y           Z
 ---------------------------------------------------------------------
      1          6           0       -3.227326   -0.933185   -0.000011
      2          6           0       -2.149719    0.134967    0.000064
      3          8           0       -0.910973   -0.432785   -0.000181
      4          6           0        0.194867    0.431268   -0.000282
      5          6           0        1.467540   -0.402702    0.000173
      6          8           0        2.577036    0.462504   -0.000427
      7          6           0        3.801756   -0.239249    0.000273
      8          8           0       -2.378477    1.323764    0.000300
      9          1           0       -2.809745   -1.965074   -0.000458
     10          1           0       -3.867112   -0.818408    0.904142
     11          1           0       -3.867647   -0.817829   -0.903758
     12          1           0        0.159987    1.071624   -0.912735
     13          1           0        0.159871    1.072212    0.911766
     14          1           0        1.500035   -1.045859    0.910124
     15          1           0        1.499960   -1.046658   -0.909276
     16          1           0        4.626305    0.508375   -0.000414
     17          1           0        3.887494   -0.865574    0.915938
     18          1           0        3.887458   -0.867268   -0.914162
 ---------------------------------------------------------------------
 Rotational constants (GHZ):      7.4346899      0.7309745      0.6774587
 Standard basis: 6-31+G(d,p) (6D, 7F)
 There are   202 symmetry adapted cartesian basis functions of A   symmetry.
 There are   202 symmetry adapted basis functions of A   symmetry.
   202 basis functions,   326 primitive gaussians,   202 cartesian basis functions
    32 alpha electrons       32 beta electrons
       nuclear repulsion energy       379.6182830530 Hartrees.
 NAtoms=   18 NActive=   18 NUniq=   18 SFac= 1.00D+00 NAtFMM=   60 NAOKFM=F Big=F
 Integral buffers will be    131072 words long.
 Raffenetti 2 integral format.
 Two-electron integral symmetry is turned on.
 One-electron integrals computed using PRISM.
 NBasis=   202 RedAO= T EigKep=  3.15D-05  NBF=   202
 NBsUse=   202 1.00D-06 EigRej= -1.00D+00 NBFU=   202
 ExpMin= 4.38D-02 ExpMax= 5.48D+03 ExpMxC= 8.25D+02 IAcc=2 IRadAn=         4 AccDes= 0.00D+00
 Harris functional with IExCor=  402 and IRadAn=       4 diagonalized for initial guess.
 HarFok:  IExCor=  402 AccDes= 0.00D+00 IRadAn=         4 IDoV= 1 UseB2=F ITyADJ=14
 ICtDFT=  3500011 ScaDFX=  1.000000  1.000000  1.000000  1.000000
 FoFCou: FMM=F IPFlag=           0 FMFlag=      100000 FMFlg1=           0
         NFxFlg=           0 DoJE=T BraDBF=F KetDBF=T FulRan=T
         wScrn=  0.000000 ICntrl=     500 IOpCl=  0 I1Cent=   200000004 NGrid=           0
         NMat0=    1 NMatS0=      1 NMatT0=    0 NMatD0=    1 NMtDS0=    0 NMtDT0=    0
 Petite list used in FoFCou.
 Keep R1 ints in memory in canonical form, NReq=214523466.
 Requested convergence on RMS density matrix=1.00D-08 within 128 cycles.
 Requested convergence on MAX density matrix=1.00D-06.
 Requested convergence on             energy=1.00D-06.
 No special actions if energy rises.
 SCF Done:  E(RB3LYP) =  -422.246854548     A.U. after   12 cycles
            NFock= 12  Conv=0.69D-08     -V/T= 2.0097

 **********************************************************************

            Population analysis using the SCF density.

 **********************************************************************

 Orbital symmetries:
       Occupied  (A) (A) (A) (A) (A) (A) (A) (A) (A) (A) (A) (A)
                 (A) (A) (A) (A) (A) (A) (A) (A) (A) (A) (A) (A)
                 (A) (A) (A) (A) (A) (A) (A) (A)
       Virtual   (A) (A) (A) (A) (A) (A) (A) (A) (A) (A) (A) (A)
                 (A) (A) (A) (A) (A) (A) (A) (A) (A) (A) (A) (A)
                 (A) (A) (A) (A) (A) (A) (A) (A) (A) (A) (A) (A)
                 (A) (A) (A) (A) (A) (A) (A) (A) (A) (A) (A) (A)
                 (A) (A) (A) (A) (A) (A) (A) (A) (A) (A) (A) (A)
                 (A) (A) (A) (A) (A) (A) (A) (A) (A) (A) (A) (A)
                 (A) (A) (A) (A) (A) (A) (A) (A) (A) (A) (A) (A)
                 (A) (A) (A) (A) (A) (A) (A) (A) (A) (A) (A) (A)
                 (A) (A) (A) (A) (A) (A) (A) (A) (A) (A) (A) (A)
                 (A) (A) (A) (A) (A) (A) (A) (A) (A) (A) (A) (A)
                 (A) (A) (A) (A) (A) (A) (A) (A) (A) (A) (A) (A)
                 (A) (A) (A) (A) (A) (A) (A) (A) (A) (A) (A) (A)
                 (A) (A) (A) (A) (A) (A) (A) (A) (A) (A) (A) (A)
                 (A) (A) (A) (A) (A) (A) (A) (A) (A) (A) (A) (A)
                 (A) (A)
 The electronic state is 1-A.
 Alpha  occ. eigenvalues --  -19.21167 -19.17124 -19.15510 -10.33284 -10.25366
 Alpha  occ. eigenvalues --  -10.25082 -10.24505 -10.21018  -1.11981  -1.05535
 Alpha  occ. eigenvalues --   -1.03564  -0.79460  -0.74627  -0.68913  -0.62788
 Alpha  occ. eigenvalues --   -0.58007  -0.51870  -0.50534  -0.49316  -0.48124
 Alpha  occ. eigenvalues --   -0.47988  -0.45273  -0.44291  -0.41252  -0.40237
 Alpha  occ. eigenvalues --   -0.39086  -0.36787  -0.36057  -0.33411  -0.31363
 Alpha  occ. eigenvalues --   -0.28882  -0.27402
 Alpha virt. eigenvalues --   -0.00772   0.00241   0.00952   0.02547   0.03048
 Alpha virt. eigenvalues --    0.03234   0.03921   0.05472   0.05606   0.06557
 Alpha virt. eigenvalues --    0.07012   0.07899   0.08370   0.09346   0.10487
 Alpha virt. eigenvalues --    0.11648   0.11981   0.12392   0.15026   0.16059
 Alpha virt. eigenvalues --    0.16491   0.17344   0.18526   0.18643   0.19925
 Alpha virt. eigenvalues --    0.21202   0.21543   0.21814   0.22832   0.23308
 Alpha virt. eigenvalues --    0.24542   0.25264   0.25851   0.26969   0.27316
 Alpha virt. eigenvalues --    0.27524   0.28937   0.29874   0.29989   0.30254
 Alpha virt. eigenvalues --    0.31529   0.31880   0.33207   0.36318   0.37895
 Alpha virt. eigenvalues --    0.38512   0.40118   0.40979   0.43052   0.50420
 Alpha virt. eigenvalues --    0.61035   0.63892   0.64092   0.65003   0.66282
 Alpha virt. eigenvalues --    0.67037   0.69341   0.70617   0.73133   0.73401
 Alpha virt. eigenvalues --    0.76595   0.82593   0.82674   0.85733   0.86730
 Alpha virt. eigenvalues --    0.90623   0.92183   0.92904   0.96589   0.98001
 Alpha virt. eigenvalues --    0.98260   1.00656   1.05489   1.06662   1.07899
 Alpha virt. eigenvalues --    1.12209   1.14182   1.19130   1.19969   1.22895
 Alpha virt. eigenvalues --    1.24042   1.24632   1.30165   1.30707   1.33370
 Alpha virt. eigenvalues --    1.34078   1.35613   1.37451   1.39240   1.44215
 Alpha virt. eigenvalues --    1.47623   1.48271   1.49818   1.51561   1.56607
 Alpha virt. eigenvalues --    1.63372   1.65934   1.68242   1.69934   1.73191
 Alpha virt. eigenvalues --    1.76818   1.81276   1.85090   1.89428   1.89562
 Alpha virt. eigenvalues --    1.91427   1.93894   1.95349   1.96316   1.98181
 Alpha virt. eigenvalues --    2.00006   2.01680   2.02516   2.03259   2.03612
 Alpha virt. eigenvalues --    2.04731   2.05977   2.06609   2.07840   2.09934
 Alpha virt. eigenvalues --    2.10485   2.15824   2.21453   2.22142   2.26671
 Alpha virt. eigenvalues --    2.30611   2.34170   2.41329   2.45790   2.51762
 Alpha virt. eigenvalues --    2.53664   2.54245   2.60671   2.62984   2.62989
 Alpha virt. eigenvalues --    2.65758   2.66992   2.69116   2.73397   2.74742
 Alpha virt. eigenvalues --    2.75426   2.80123   2.80622   2.81931   2.86590
 Alpha virt. eigenvalues --    2.86785   2.89627   2.94347   3.02875   3.07248
 Alpha virt. eigenvalues --    3.10307   3.17896   3.19709   3.24999   3.28627
 Alpha virt. eigenvalues --    3.33375   3.35699   3.37213   3.39471   3.42928
 Alpha virt. eigenvalues --    3.43922   3.49008   4.23674   4.30646   4.35402
 Alpha virt. eigenvalues --    4.43260   4.51934   4.54224   4.62222   4.69652
          Condensed to atoms (all electrons):
               1          2          3          4          5          6
     1  C    5.639311  -0.137496  -0.118101  -0.080530  -0.029073   0.001078
     2  C   -0.137496   5.392173   0.080016  -0.014823  -0.009360   0.011960
     3  O   -0.118101   0.080016   8.576904   0.044601  -0.071103  -0.000093
     4  C   -0.080530  -0.014823   0.044601   5.555273  -0.061878   0.046217
     5  C   -0.029073  -0.009360  -0.071103  -0.061878   5.462295   0.050512
     6  O    0.001078   0.011960  -0.000093   0.046217   0.050512   8.413780
     7  C    0.001487  -0.000261   0.006218  -0.033935  -0.060528   0.094505
     8  O   -0.045396   0.433591  -0.117973  -0.085224   0.049652   0.000264
     9  H    0.437849  -0.081398  -0.003393   0.003410  -0.004884   0.000005
    10  H    0.425931  -0.063396   0.002756  -0.003802  -0.000428   0.000000
    11  H    0.426014  -0.063465   0.002760  -0.003807  -0.000433   0.000000
    12  H   -0.003129  -0.011230  -0.048844   0.422367  -0.040620   0.002563
    13  H   -0.003121  -0.011236  -0.048843   0.422372  -0.040634   0.002565
    14  H   -0.000571  -0.000111   0.001972  -0.030873   0.403476  -0.059865
    15  H   -0.000571  -0.000109   0.001971  -0.030754   0.403403  -0.059892
    16  H   -0.000020  -0.000256  -0.000012  -0.018999   0.024828  -0.057609
    17  H    0.000051   0.000221   0.000021   0.007790  -0.014188  -0.055589
    18  H    0.000051   0.000221   0.000022   0.007760  -0.014147  -0.055594
               7          8          9         10         11         12
     1  C    0.001487  -0.045396   0.437849   0.425931   0.426014  -0.003129
     2  C   -0.000261   0.433591  -0.081398  -0.063396  -0.063465  -0.011230
     3  O    0.006218  -0.117973  -0.003393   0.002756   0.002760  -0.048844
     4  C   -0.033935  -0.085224   0.003410  -0.003802  -0.003807   0.422367
     5  C   -0.060528   0.049652  -0.004884  -0.000428  -0.000433  -0.040620
     6  O    0.094505   0.000264   0.000005   0.000000   0.000000   0.002563
     7  C    4.966720   0.000130   0.000016   0.000006   0.000006  -0.000445
     8  O    0.000130   8.204602   0.006199  -0.004147  -0.004147   0.005214
     9  H    0.000016   0.006199   0.525311  -0.026113  -0.026114  -0.000010
    10  H    0.000006  -0.004147  -0.026113   0.506823  -0.019486  -0.000013
    11  H    0.000006  -0.004147  -0.026114  -0.019486   0.506821   0.000039
    12  H   -0.000445   0.005214  -0.000010  -0.000013   0.000039   0.549109
    13  H   -0.000453   0.005218  -0.000010   0.000039  -0.000013  -0.032992
    14  H   -0.007737  -0.000067   0.000000  -0.000001   0.000000   0.004433
    15  H   -0.007779  -0.000067   0.000000   0.000000  -0.000001  -0.007189
    16  H    0.414000   0.000000   0.000000   0.000000   0.000000   0.000007
    17  H    0.405659   0.000000   0.000000   0.000000   0.000000   0.000002
    18  H    0.405660   0.000000   0.000000   0.000000   0.000000  -0.000022
              13         14         15         16         17         18
     1  C   -0.003121  -0.000571  -0.000571  -0.000020   0.000051   0.000051
     2  C   -0.011236  -0.000111  -0.000109  -0.000256   0.000221   0.000221
     3  O   -0.048843   0.001972   0.001971  -0.000012   0.000021   0.000022
     4  C    0.422372  -0.030873  -0.030754  -0.018999   0.007790   0.007760
     5  C   -0.040634   0.403476   0.403403   0.024828  -0.014188  -0.014147
     6  O    0.002565  -0.059865  -0.059892  -0.057609  -0.055589  -0.055594
     7  C   -0.000453  -0.007737  -0.007779   0.414000   0.405659   0.405660
     8  O    0.005218  -0.000067  -0.000067   0.000000   0.000000   0.000000
     9  H   -0.000010   0.000000   0.000000   0.000000   0.000000   0.000000
    10  H    0.000039  -0.000001   0.000000   0.000000   0.000000   0.000000
    11  H   -0.000013   0.000000  -0.000001   0.000000   0.000000   0.000000
    12  H   -0.032992   0.004433  -0.007189   0.000007   0.000002  -0.000022
    13  H    0.549099  -0.007192   0.004435   0.000007  -0.000022   0.000002
    14  H   -0.007192   0.612687  -0.049775  -0.000136   0.010124  -0.002554
    15  H    0.004435  -0.049775   0.612713  -0.000136  -0.002551   0.010125
    16  H    0.000007  -0.000136  -0.000136   0.550285  -0.029472  -0.029469
    17  H   -0.000022   0.010124  -0.002551  -0.029472   0.596396  -0.044438
    18  H    0.000002  -0.002554   0.010125  -0.029469  -0.044438   0.596388
 Mulliken charges:
               1
     1  C   -0.513763
     2  C    0.474958
     3  O   -0.308878
     4  C   -0.145166
     5  C   -0.046891
     6  O   -0.334808
     7  C   -0.183269
     8  O   -0.447848
     9  H    0.169131
    10  H    0.181830
    11  H    0.181828
    12  H    0.160761
    13  H    0.160778
    14  H    0.126189
    15  H    0.126177
    16  H    0.146982
    17  H    0.125994
    18  H    0.125995
 Sum of Mulliken charges =   0.00000
 Mulliken charges with hydrogens summed into heavy atoms:
               1
     1  C    0.019025
     2  C    0.474958
     3  O   -0.308878
     4  C    0.176373
     5  C    0.205475
     6  O   -0.334808
     7  C    0.215702
     8  O   -0.447848
 Electronic spatial extent (au):  <R**2>=           1651.5879
 Charge=              0.0000 electrons
 Dipole moment (field-independent basis, Debye):
    X=              1.1501    Y=             -3.0720    Z=              0.0007  Tot=              3.2802
 Quadrupole moment (field-independent basis, Debye-Ang):
   XX=            -43.4492   YY=            -54.3282   ZZ=            -47.8436
   XY=              3.7929   XZ=              0.0043   YZ=             -0.0006
 Traceless Quadrupole moment (field-independent basis, Debye-Ang):
   XX=              5.0911   YY=             -5.7878   ZZ=              0.6967
   XY=              3.7929   XZ=              0.0043   YZ=             -0.0006
 Octapole moment (field-independent basis, Debye-Ang**2):
  XXX=             17.7634  YYY=             -2.3920  ZZZ=              0.0010  XYY=              6.4851
  XXY=            -26.4248  XXZ=              0.0025  XZZ=             -3.2433  YZZ=              1.1473
  YYZ=             -0.0028  XYZ=              0.0050
 Hexadecapole moment (field-independent basis, Debye-Ang**3):
 XXXX=          -1696.0850 YYYY=           -227.6184 ZZZZ=            -77.4131 XXXY=             47.5046
 XXXZ=              0.0211 YYYX=             13.7377 YYYZ=              0.0039 ZZZX=             -0.0016
 ZZZY=             -0.0025 XXYY=           -378.6101 XXZZ=           -316.7516 YYZZ=            -49.2597
 XXYZ=             -0.0058 YYXZ=             -0.0031 ZZXY=             -3.0587
 N-N= 3.796182830530D+02 E-N=-1.745063529807D+03  KE= 4.181921917324D+02
 Calling FoFJK, ICntrl=      2127 FMM=F ISym2X=0 I1Cent= 0 IOpClX= 0 NMat=1 NMatS=1 NMatT=0.
 ***** Axes restored to original set *****
 -------------------------------------------------------------------
 Center     Atomic                   Forces (Hartrees/Bohr)
 Number     Number              X              Y              Z
 -------------------------------------------------------------------
      1        6          -0.012674533    0.007022198   -0.000010434
      2        6          -0.011816565    0.007975985   -0.000000587
      3        8          -0.009734264    0.018038100    0.000017748
      4        6           0.029701771   -0.016601916   -0.000001906
      5        6          -0.013155533    0.002230293   -0.000054046
      6        8           0.008630150   -0.000051485    0.000014076
      7        6           0.001162158   -0.010551984    0.000019167
      8        8           0.000849829   -0.007808450   -0.000002176
      9        1           0.013551590    0.002410772    0.000000934
     10        1           0.000874184   -0.006194318   -0.011022783
     11        1           0.000876073   -0.006219594    0.011035498
     12        1          -0.003582920   -0.001387687    0.012329531
     13        1          -0.003602196   -0.001365282   -0.012330468
     14        1           0.001382540    0.002116959   -0.007866915
     15        1           0.001389360    0.002117969    0.007894573
     16        1          -0.007244038    0.010845220    0.000010143
     17        1           0.001695937   -0.001281553   -0.007922659
     18        1           0.001696456   -0.001295227    0.007890302
 -------------------------------------------------------------------
 Cartesian Forces:  Max     0.029701771 RMS     0.008282367

 GradGradGradGradGradGradGradGradGradGradGradGradGradGradGradGradGradGrad
 Berny optimization.
 FormGI is forming the generalized inverse of G from B-inverse, IUseBI=4.
 Internal  Forces:  Max     0.022900521 RMS     0.005733639
 Search for a local minimum.
 Step number   1 out of a maximum of   82
 All quantities printed in internal units (Hartrees-Bohrs-Radians)
 Mixed Optimization -- RFO/linear search
 Second derivative matrix not updated -- first step.
 ITU=  0
     Eigenvalues ---    0.00481   0.00537   0.00962   0.01539   0.01600
     Eigenvalues ---    0.01647   0.02186   0.05371   0.05398   0.05914
     Eigenvalues ---    0.05924   0.06990   0.07353   0.10248   0.10589
     Eigenvalues ---    0.11316   0.11334   0.13705   0.13708   0.16000
     Eigenvalues ---    0.16000   0.16000   0.16000   0.16000   0.16000
     Eigenvalues ---    0.22052   0.22067   0.25000   0.25000   0.25000
     Eigenvalues ---    0.25000   0.30215   0.30629   0.32047   0.32048
     Eigenvalues ---    0.32095   0.32100   0.32223   0.32227   0.32266
     Eigenvalues ---    0.32282   0.32317   0.32323   0.43763   0.44485
     Eigenvalues ---    0.45065   0.52414   0.99669
 RFO step:  Lambda=-7.76273431D-03 EMin= 4.80500216D-03
 Linear search not attempted -- first point.
 Iteration  1 RMS(Cart)=  0.03516094 RMS(Int)=  0.00061539
 Iteration  2 RMS(Cart)=  0.00078709 RMS(Int)=  0.00010248
 Iteration  3 RMS(Cart)=  0.00000031 RMS(Int)=  0.00010247
 Variable       Old X    -DE/DX   Delta X   Delta X   Delta X     New X
                                 (Linear)    (Quad)   (Total)
    R1        2.86727  -0.00397   0.00000  -0.01265  -0.01265   2.85462
    R2        2.10360  -0.01357   0.00000  -0.04108  -0.04108   2.06252
    R3        2.10430  -0.01237   0.00000  -0.03747  -0.03747   2.06683
    R4        2.10437  -0.01239   0.00000  -0.03755  -0.03755   2.06682
    R5        2.57505  -0.00629   0.00000  -0.01183  -0.01183   2.56322
    R6        2.28771  -0.00031   0.00000  -0.00031  -0.00031   2.28740
    R7        2.65200   0.02290   0.00000   0.04996   0.04996   2.70196
    R8        2.87537  -0.00077   0.00000  -0.00248  -0.00248   2.87289
    R9        2.10757  -0.01216   0.00000  -0.03704  -0.03704   2.07052
   R10        2.10759  -0.01216   0.00000  -0.03706  -0.03706   2.07053
   R11        2.65879   0.00535   0.00000   0.01183   0.01183   2.67061
   R12        2.10662  -0.00723   0.00000  -0.02200  -0.02200   2.08462
   R13        2.10671  -0.00725   0.00000  -0.02206  -0.02206   2.08464
   R14        2.66739   0.00337   0.00000   0.00756   0.00756   2.67495
   R15        2.10331  -0.01297   0.00000  -0.03923  -0.03923   2.06408
   R16        2.10268  -0.00741   0.00000  -0.02239  -0.02239   2.08028
   R17        2.10256  -0.00738   0.00000  -0.02229  -0.02229   2.08028
    A1        1.96726  -0.00205   0.00000  -0.00737  -0.00737   1.95989
    A2        1.91288  -0.00120   0.00000  -0.00948  -0.00958   1.90330
    A3        1.91293  -0.00120   0.00000  -0.00953  -0.00963   1.90330
    A4        1.88746   0.00265   0.00000   0.02047   0.02046   1.90792
    A5        1.88746   0.00265   0.00000   0.02048   0.02047   1.90794
    A6        1.89432  -0.00074   0.00000  -0.01434  -0.01453   1.87978
    A7        1.93084   0.00627   0.00000   0.02433   0.02433   1.95517
    A8        2.16168   0.00584   0.00000   0.02267   0.02267   2.18435
    A9        2.19066  -0.01211   0.00000  -0.04699  -0.04699   2.14367
   A10        2.04857  -0.00255   0.00000  -0.00988  -0.00988   2.03869
   A11        1.89824  -0.00887   0.00000  -0.03389  -0.03371   1.86453
   A12        1.90596   0.00395   0.00000   0.02530   0.02532   1.93128
   A13        1.90609   0.00393   0.00000   0.02517   0.02519   1.93128
   A14        1.91888   0.00230   0.00000   0.00775   0.00791   1.92680
   A15        1.91876   0.00232   0.00000   0.00791   0.00808   1.92684
   A16        1.91569  -0.00363   0.00000  -0.03189  -0.03202   1.88367
   A17        1.89919  -0.00807   0.00000  -0.03092  -0.03078   1.86841
   A18        1.91861   0.00127   0.00000   0.00010   0.00025   1.91886
   A19        1.91843   0.00128   0.00000   0.00028   0.00043   1.91886
   A20        1.90938   0.00415   0.00000   0.02818   0.02809   1.93746
   A21        1.90915   0.00417   0.00000   0.02843   0.02835   1.93749
   A22        1.90899  -0.00276   0.00000  -0.02562  -0.02589   1.88311
   A23        1.95896   0.00352   0.00000   0.01366   0.01366   1.97262
   A24        1.88476  -0.00295   0.00000  -0.01697  -0.01691   1.86786
   A25        1.92529   0.00374   0.00000   0.02194   0.02190   1.94719
   A26        1.92522   0.00375   0.00000   0.02202   0.02199   1.94720
   A27        1.89813  -0.00005   0.00000   0.00033   0.00039   1.89852
   A28        1.89818  -0.00006   0.00000   0.00030   0.00036   1.89855
   A29        1.93123  -0.00449   0.00000  -0.02796  -0.02808   1.90316
    D1       -0.00020   0.00000   0.00000  -0.00004  -0.00004  -0.00024
    D2        3.14138   0.00000   0.00000   0.00004   0.00004   3.14142
    D3        2.10277   0.00118   0.00000   0.01448   0.01439   2.11717
    D4       -1.03883   0.00118   0.00000   0.01456   0.01447  -1.02436
    D5       -2.10321  -0.00118   0.00000  -0.01454  -0.01446  -2.11767
    D6        1.03837  -0.00118   0.00000  -0.01446  -0.01438   1.02399
    D7        3.14148   0.00000   0.00000   0.00014   0.00014  -3.14156
    D8       -0.00010   0.00000   0.00000   0.00006   0.00006  -0.00004
    D9        3.14109   0.00001   0.00000   0.00007   0.00007   3.14116
   D10       -1.04796  -0.00017   0.00000   0.00421   0.00397  -1.04399
   D11        1.04702   0.00017   0.00000  -0.00419  -0.00396   1.04306
   D12        3.14122   0.00001   0.00000   0.00020   0.00020   3.14141
   D13       -1.05128   0.00090   0.00000   0.01572   0.01572  -1.03556
   D14        1.05092  -0.00090   0.00000  -0.01576  -0.01576   1.03516
   D15        1.05511  -0.00076   0.00000  -0.01462  -0.01462   1.04050
   D16       -3.13739   0.00012   0.00000   0.00090   0.00091  -3.13647
   D17       -1.03518  -0.00168   0.00000  -0.03057  -0.03057  -1.06576
   D18       -1.05578   0.00078   0.00000   0.01495   0.01495  -1.04083
   D19        1.03491   0.00167   0.00000   0.03047   0.03048   1.06538
   D20        3.13711  -0.00013   0.00000  -0.00100  -0.00101   3.13610
   D21        3.14134  -0.00001   0.00000  -0.00006  -0.00006   3.14129
   D22        1.04493   0.00085   0.00000   0.00167   0.00201   1.04694
   D23       -1.04578  -0.00083   0.00000  -0.00140  -0.00175  -1.04753
   D24        3.14145   0.00000   0.00000   0.00004   0.00004   3.14149
   D25       -1.06956   0.00031   0.00000   0.00284   0.00269  -1.06686
   D26        1.06924  -0.00031   0.00000  -0.00277  -0.00262   1.06662
         Item               Value     Threshold  Converged?
 Maximum Force            0.022901     0.000450     NO 
 RMS     Force            0.005734     0.000300     NO 
 Maximum Displacement     0.103105     0.001800     NO 
 RMS     Displacement     0.035138     0.001200     NO 
 Predicted change in Energy=-4.002153D-03
 GradGradGradGradGradGradGradGradGradGradGradGradGradGradGradGradGradGrad

                          Input orientation:                          
 ---------------------------------------------------------------------
 Center     Atomic      Atomic             Coordinates (Angstroms)
 Number     Number       Type             X           Y           Z
 ---------------------------------------------------------------------
      1          6           0       -0.544849    3.521386    0.000806
      2          6           0        0.448490    2.383322    0.000124
      3          8           0       -0.164378    1.173280   -0.000075
      4          6           0        0.682698    0.021400   -0.000680
      5          6           0       -0.228834   -1.195285   -0.000161
      6          8           0        0.603985   -2.337049   -0.000998
      7          6           0       -0.122305   -3.552041   -0.000226
      8          8           0        1.652385    2.509039   -0.000147
      9          1           0       -1.577925    3.169253    0.000771
     10          1           0       -0.374641    4.143285    0.884260
     11          1           0       -0.374864    4.144146   -0.882082
     12          1           0        1.326676    0.015715   -0.887111
     13          1           0        1.327850    0.015648    0.884898
     14          1           0       -0.877148   -1.179324    0.892214
     15          1           0       -0.878588   -1.179018   -0.891501
     16          1           0        0.610118   -4.362349   -0.001074
     17          1           0       -0.753315   -3.645685    0.896938
     18          1           0       -0.755355   -3.645620   -0.895956
 ---------------------------------------------------------------------
                    Distance matrix (angstroms):
                    1          2          3          4          5
     1  C    0.000000
     2  C    1.510600   0.000000
     3  O    2.378731   1.356396   0.000000
     4  C    3.709013   2.373506   1.429813   0.000000
     5  C    4.727246   3.642142   2.369442   1.520267   0.000000
     6  O    5.970015   4.722931   3.593437   2.359762   1.413228
     7  C    7.086036   5.962746   4.725508   3.662992   2.359162
     8  O    2.419232   1.210441   2.254968   2.669952   4.154636
     9  H    1.091441   2.173487   2.445817   3.875487   4.568286
    10  H    1.093720   2.134646   3.105993   4.346381   5.413298
    11  H    1.093717   2.134643   3.106169   4.346533   5.413745
    12  H    4.071945   2.676558   2.085673   1.095674   2.161669
    13  H    4.071710   2.676188   2.085674   1.095675   2.161702
    14  H    4.796009   3.904560   2.615142   2.161508   1.103132
    15  H    4.795976   3.904663   2.614964   2.161522   1.103146
    16  H    7.967887   6.747607   5.589546   4.384349   3.276298
    17  H    7.225884   6.212691   4.936993   4.039227   2.661639
    18  H    7.225958   6.212917   4.936968   4.039375   2.661543
                    6          7          8          9         10
     6  O    0.000000
     7  C    1.415522   0.000000
     8  O    4.958197   6.315554   0.000000
     9  H    5.922845   6.877109   3.297087   0.000000
    10  H    6.613329   7.750099   2.749868   1.782466   0.000000
    11  H    6.613648   7.750662   2.749750   1.782471   1.766343
    12  H    2.615908   3.951581   2.666357   4.378338   4.803028
    13  H    2.616099   3.951557   2.665638   4.378406   4.464960
    14  H    2.081324   2.645000   4.560578   4.493983   5.346283
    15  H    2.081358   2.645293   4.560932   4.493627   5.633312
    16  H    2.025309   1.092265   6.949985   7.842994   8.608099
    17  H    2.088319   1.100839   6.668791   6.922895   7.798180
    18  H    2.088327   1.100836   6.669296   6.922661   7.998822
                   11         12         13         14         15
    11  H    0.000000
    12  H    4.465334   0.000000
    13  H    4.802703   1.772010   0.000000
    14  H    5.633804   3.074241   2.507993   0.000000
    15  H    5.346953   2.508106   3.074279   1.783716   0.000000
    16  H    8.608532   4.523931   4.524040   3.625130   3.625286
    17  H    7.999350   4.573296   4.211502   2.469472   3.049369
    18  H    7.799066   4.211924   4.573408   3.048771   2.469683
                   16         17         18
    16  H    0.000000
    17  H    1.782970   0.000000
    18  H    1.782983   1.792895   0.000000
 Stoichiometry    C5H10O3
 Framework group  C1[X(C5H10O3)]
 Deg. of freedom    48
 Full point group                 C1      NOp   1
 Largest Abelian subgroup         C1      NOp   1
 Largest concise Abelian subgroup C1      NOp   1
                         Standard orientation:                         
 ---------------------------------------------------------------------
 Center     Atomic      Atomic             Coordinates (Angstroms)
 Number     Number       Type             X           Y           Z
 ---------------------------------------------------------------------
      1          6           0       -3.251535   -0.909600    0.000091
      2          6           0       -2.149943    0.124039    0.000031
      3          8           0       -0.918636   -0.444901   -0.000260
      4          6           0        0.202024    0.443066   -0.000306
      5          6           0        1.450714   -0.424105   -0.000012
      6          8           0        2.561778    0.449250   -0.000300
      7          6           0        3.802112   -0.232860    0.000330
      8          8           0       -2.318889    1.322632    0.000284
      9          1           0       -2.862465   -1.929338   -0.000355
     10          1           0       -3.879276   -0.762278    0.883528
     11          1           0       -3.879887   -0.761726   -0.882815
     12          1           0        0.184659    1.087237   -0.886446
     13          1           0        0.184442    1.087604    0.885564
     14          1           0        1.457965   -1.072981    0.892068
     15          1           0        1.457954   -1.073617   -0.891647
     16          1           0        4.585546    0.528240   -0.000063
     17          1           0        3.918273   -0.860502    0.897224
     18          1           0        3.918527   -0.861725   -0.895670
 ---------------------------------------------------------------------
 Rotational constants (GHZ):      7.5173367      0.7353007      0.6813034
 Standard basis: 6-31+G(d,p) (6D, 7F)
 There are   202 symmetry adapted cartesian basis functions of A   symmetry.
 There are   202 symmetry adapted basis functions of A   symmetry.
   202 basis functions,   326 primitive gaussians,   202 cartesian basis functions
    32 alpha electrons       32 beta electrons
       nuclear repulsion energy       380.5091805286 Hartrees.
 NAtoms=   18 NActive=   18 NUniq=   18 SFac= 1.00D+00 NAtFMM=   60 NAOKFM=F Big=F
 Integral buffers will be    131072 words long.
 Raffenetti 2 integral format.
 Two-electron integral symmetry is turned on.
 One-electron integrals computed using PRISM.
 NBasis=   202 RedAO= T EigKep=  3.46D-05  NBF=   202
 NBsUse=   202 1.00D-06 EigRej= -1.00D+00 NBFU=   202
 Initial guess from the checkpoint file:  "mea.chk"
 B after Tr=     0.000000    0.000000    0.000000
         Rot=    0.999997   -0.000017    0.000000    0.002321 Ang=  -0.27 deg.
 ExpMin= 4.38D-02 ExpMax= 5.48D+03 ExpMxC= 8.25D+02 IAcc=2 IRadAn=         4 AccDes= 0.00D+00
 Harris functional with IExCor=  402 and IRadAn=       4 diagonalized for initial guess.
 HarFok:  IExCor=  402 AccDes= 0.00D+00 IRadAn=         4 IDoV= 1 UseB2=F ITyADJ=14
 ICtDFT=  3500011 ScaDFX=  1.000000  1.000000  1.000000  1.000000
 FoFCou: FMM=F IPFlag=           0 FMFlag=      100000 FMFlg1=           0
         NFxFlg=           0 DoJE=T BraDBF=F KetDBF=T FulRan=T
         wScrn=  0.000000 ICntrl=     500 IOpCl=  0 I1Cent=   200000004 NGrid=           0
         NMat0=    1 NMatS0=      1 NMatT0=    0 NMatD0=    1 NMtDS0=    0 NMtDT0=    0
 Petite list used in FoFCou.
 Keep R1 ints in memory in canonical form, NReq=214523466.
 Requested convergence on RMS density matrix=1.00D-08 within 128 cycles.
 Requested convergence on MAX density matrix=1.00D-06.
 Requested convergence on             energy=1.00D-06.
 No special actions if energy rises.
 SCF Done:  E(RB3LYP) =  -422.250919576     A.U. after   11 cycles
            NFock= 11  Conv=0.45D-08     -V/T= 2.0093
 Calling FoFJK, ICntrl=      2127 FMM=F ISym2X=0 I1Cent= 0 IOpClX= 0 NMat=1 NMatS=1 NMatT=0.
 ***** Axes restored to original set *****
 -------------------------------------------------------------------
 Center     Atomic                   Forces (Hartrees/Bohr)
 Number     Number              X              Y              Z
 -------------------------------------------------------------------
      1        6          -0.001722340   -0.000409769   -0.000002795
      2        6          -0.003428098   -0.001884746    0.000008001
      3        8          -0.005046417    0.005505222    0.000000517
      4        6           0.006596475   -0.007615701   -0.000002154
      5        6          -0.002365438    0.002059286   -0.000000655
      6        8          -0.000040585   -0.000236531   -0.000001756
      7        6           0.000750364   -0.002237876    0.000001772
      8        8           0.004242522    0.001826545   -0.000004290
      9        1           0.000776110   -0.000769736   -0.000000070
     10        1           0.000866422    0.000103973   -0.000234944
     11        1           0.000866480    0.000104985    0.000234804
     12        1          -0.000768966    0.001600204    0.000711686
     13        1          -0.000772267    0.001597696   -0.000713061
     14        1           0.000240153   -0.000497784   -0.000651648
     15        1           0.000247981   -0.000501042    0.000657367
     16        1           0.000152162    0.000161899   -0.000001411
     17        1          -0.000298313    0.000597356   -0.000362034
     18        1          -0.000296247    0.000596017    0.000360671
 -------------------------------------------------------------------
 Cartesian Forces:  Max     0.007615701 RMS     0.002042798

 GradGradGradGradGradGradGradGradGradGradGradGradGradGradGradGradGradGrad
 Berny optimization.
 Using GEDIIS/GDIIS optimizer.
 FormGI is forming the generalized inverse of G from B-inverse, IUseBI=4.
 Internal  Forces:  Max     0.005649252 RMS     0.001082735
 Search for a local minimum.
 Step number   2 out of a maximum of   82
 All quantities printed in internal units (Hartrees-Bohrs-Radians)
 Mixed Optimization -- RFO/linear search
 Update second derivatives using D2CorX and points    1    2
 DE= -4.07D-03 DEPred=-4.00D-03 R= 1.02D+00
 TightC=F SS=  1.41D+00  RLast= 1.76D-01 DXNew= 5.0454D-01 5.2937D-01
 Trust test= 1.02D+00 RLast= 1.76D-01 DXMaxT set to 5.05D-01
 ITU=  1  0
 Use linear search instead of GDIIS.
     Eigenvalues ---    0.00481   0.00537   0.00933   0.01539   0.01600
     Eigenvalues ---    0.01647   0.02186   0.05496   0.05513   0.05964
     Eigenvalues ---    0.06145   0.07031   0.07451   0.10031   0.10576
     Eigenvalues ---    0.11041   0.11131   0.13587   0.13590   0.15756
     Eigenvalues ---    0.16000   0.16000   0.16000   0.16000   0.16183
     Eigenvalues ---    0.21882   0.21960   0.24775   0.25000   0.25000
     Eigenvalues ---    0.26181   0.29969   0.30424   0.31555   0.32047
     Eigenvalues ---    0.32083   0.32098   0.32225   0.32246   0.32267
     Eigenvalues ---    0.32312   0.32321   0.32923   0.42711   0.43808
     Eigenvalues ---    0.44523   0.52426   1.00075
 RFO step:  Lambda=-3.15051130D-04 EMin= 4.80500218D-03
 Quartic linear search produced a step of  0.04158.
 Iteration  1 RMS(Cart)=  0.00631686 RMS(Int)=  0.00005255
 Iteration  2 RMS(Cart)=  0.00005212 RMS(Int)=  0.00003572
 Iteration  3 RMS(Cart)=  0.00000001 RMS(Int)=  0.00003572
 Variable       Old X    -DE/DX   Delta X   Delta X   Delta X     New X
                                 (Linear)    (Quad)   (Total)
    R1        2.85462  -0.00125  -0.00053  -0.00422  -0.00475   2.84987
    R2        2.06252  -0.00049  -0.00171  -0.00153  -0.00324   2.05929
    R3        2.06683   0.00000  -0.00156   0.00005  -0.00151   2.06532
    R4        2.06682   0.00000  -0.00156   0.00005  -0.00151   2.06531
    R5        2.56322  -0.00020  -0.00049  -0.00039  -0.00088   2.56234
    R6        2.28740   0.00441  -0.00001   0.00461   0.00459   2.29199
    R7        2.70196   0.00565   0.00208   0.01302   0.01510   2.71705
    R8        2.87289   0.00101  -0.00010   0.00348   0.00338   2.87627
    R9        2.07052  -0.00104  -0.00154  -0.00333  -0.00487   2.06566
   R10        2.07053  -0.00104  -0.00154  -0.00334  -0.00488   2.06564
   R11        2.67061   0.00106   0.00049   0.00248   0.00297   2.67359
   R12        2.08462  -0.00068  -0.00091  -0.00217  -0.00308   2.08153
   R13        2.08464  -0.00068  -0.00092  -0.00220  -0.00312   2.08153
   R14        2.67495   0.00060   0.00031   0.00142   0.00173   2.67668
   R15        2.06408  -0.00002  -0.00163  -0.00002  -0.00165   2.06243
   R16        2.08028  -0.00018  -0.00093  -0.00054  -0.00147   2.07881
   R17        2.08028  -0.00017  -0.00093  -0.00054  -0.00147   2.07881
    A1        1.95989  -0.00096  -0.00031  -0.00477  -0.00508   1.95481
    A2        1.90330  -0.00052  -0.00040  -0.00407  -0.00449   1.89881
    A3        1.90330  -0.00052  -0.00040  -0.00406  -0.00448   1.89882
    A4        1.90792   0.00103   0.00085   0.00799   0.00883   1.91676
    A5        1.90794   0.00103   0.00085   0.00800   0.00884   1.91678
    A6        1.87978  -0.00002  -0.00060  -0.00311  -0.00375   1.87604
    A7        1.95517  -0.00117   0.00101  -0.00492  -0.00390   1.95126
    A8        2.18435  -0.00099   0.00094  -0.00414  -0.00320   2.18115
    A9        2.14367   0.00216  -0.00195   0.00906   0.00710   2.15077
   A10        2.03869  -0.00151  -0.00041  -0.00628  -0.00669   2.03200
   A11        1.86453  -0.00029  -0.00140  -0.00304  -0.00440   1.86013
   A12        1.93128  -0.00094   0.00105  -0.01202  -0.01095   1.92033
   A13        1.93128  -0.00093   0.00105  -0.01200  -0.01094   1.92034
   A14        1.92680   0.00125   0.00033   0.01213   0.01239   1.93918
   A15        1.92684   0.00125   0.00034   0.01212   0.01238   1.93922
   A16        1.88367  -0.00031  -0.00133   0.00288   0.00132   1.88499
   A17        1.86841  -0.00016  -0.00128  -0.00072  -0.00199   1.86642
   A18        1.91886   0.00049   0.00001   0.00444   0.00445   1.92331
   A19        1.91886   0.00049   0.00002   0.00443   0.00445   1.92331
   A20        1.93746  -0.00025   0.00117  -0.00319  -0.00202   1.93544
   A21        1.93749  -0.00025   0.00118  -0.00323  -0.00205   1.93544
   A22        1.88311  -0.00028  -0.00108  -0.00153  -0.00263   1.88047
   A23        1.97262   0.00085   0.00057   0.00353   0.00409   1.97671
   A24        1.86786   0.00017  -0.00070   0.00258   0.00188   1.86974
   A25        1.94719  -0.00053   0.00091  -0.00422  -0.00333   1.94386
   A26        1.94720  -0.00053   0.00091  -0.00423  -0.00333   1.94387
   A27        1.89852   0.00062   0.00002   0.00542   0.00543   1.90396
   A28        1.89855   0.00062   0.00002   0.00539   0.00541   1.90396
   A29        1.90316  -0.00028  -0.00117  -0.00425  -0.00545   1.89771
    D1       -0.00024   0.00000   0.00000   0.00015   0.00015  -0.00010
    D2        3.14142   0.00000   0.00000  -0.00017  -0.00016   3.14125
    D3        2.11717   0.00031   0.00060   0.00431   0.00489   2.12206
    D4       -1.02436   0.00031   0.00060   0.00400   0.00458  -1.01977
    D5       -2.11767  -0.00031  -0.00060  -0.00403  -0.00462  -2.12229
    D6        1.02399  -0.00031  -0.00060  -0.00435  -0.00493   1.01907
    D7       -3.14156   0.00000   0.00001  -0.00010  -0.00009   3.14153
    D8       -0.00004   0.00000   0.00000   0.00021   0.00021   0.00018
    D9        3.14116   0.00000   0.00000   0.00007   0.00007   3.14123
   D10       -1.04399   0.00080   0.00017   0.00605   0.00617  -1.03782
   D11        1.04306  -0.00080  -0.00016  -0.00591  -0.00603   1.03703
   D12        3.14141   0.00000   0.00001   0.00001   0.00002   3.14143
   D13       -1.03556  -0.00012   0.00065  -0.00174  -0.00109  -1.03665
   D14        1.03516   0.00012  -0.00066   0.00181   0.00116   1.03632
   D15        1.04050   0.00060  -0.00061   0.00949   0.00894   1.04944
   D16       -3.13647   0.00048   0.00004   0.00775   0.00784  -3.12863
   D17       -1.06576   0.00072  -0.00127   0.01130   0.01009  -1.05567
   D18       -1.04083  -0.00060   0.00062  -0.00946  -0.00890  -1.04973
   D19        1.06538  -0.00072   0.00127  -0.01121  -0.01000   1.05538
   D20        3.13610  -0.00047  -0.00004  -0.00766  -0.00775   3.12835
   D21        3.14129   0.00000   0.00000   0.00009   0.00009   3.14138
   D22        1.04694  -0.00035   0.00008  -0.00303  -0.00293   1.04402
   D23       -1.04753   0.00035  -0.00007   0.00317   0.00308  -1.04445
   D24        3.14149   0.00000   0.00000   0.00004   0.00004   3.14153
   D25       -1.06686   0.00056   0.00011   0.00583   0.00592  -1.06094
   D26        1.06662  -0.00056  -0.00011  -0.00572  -0.00581   1.06081
         Item               Value     Threshold  Converged?
 Maximum Force            0.005649     0.000450     NO 
 RMS     Force            0.001083     0.000300     NO 
 Maximum Displacement     0.026316     0.001800     NO 
 RMS     Displacement     0.006322     0.001200     NO 
 Predicted change in Energy=-1.649397D-04
 GradGradGradGradGradGradGradGradGradGradGradGradGradGradGradGradGradGrad

                          Input orientation:                          
 ---------------------------------------------------------------------
 Center     Atomic      Atomic             Coordinates (Angstroms)
 Number     Number       Type             X           Y           Z
 ---------------------------------------------------------------------
      1          6           0       -0.544471    3.520247    0.000788
      2          6           0        0.446678    2.383608    0.000191
      3          8           0       -0.171270    1.176674    0.000057
      4          6           0        0.683212    0.020326   -0.000585
      5          6           0       -0.231933   -1.195882   -0.000080
      6          8           0        0.601704   -2.338997   -0.000929
      7          6           0       -0.120189   -3.557673   -0.000295
      8          8           0        1.652642    2.512865   -0.000378
      9          1           0       -1.574295    3.163918    0.000906
     10          1           0       -0.367177    4.141549    0.882279
     11          1           0       -0.367566    4.142150   -0.880353
     12          1           0        1.325039    0.029641   -0.885364
     13          1           0        1.326228    0.029526    0.883325
     14          1           0       -0.880557   -1.183388    0.890106
     15          1           0       -0.881941   -1.183080   -0.889249
     16          1           0        0.613361   -4.365780   -0.001098
     17          1           0       -0.753826   -3.647869    0.894411
     18          1           0       -0.755636   -3.647737   -0.893731
 ---------------------------------------------------------------------
                    Distance matrix (angstroms):
                    1          2          3          4          5
     1  C    0.000000
     2  C    1.508087   0.000000
     3  O    2.373103   1.355932   0.000000
     4  C    3.708996   2.375089   1.437804   0.000000
     5  C    4.726474   3.643249   2.373331   1.522055   0.000000
     6  O    5.970298   4.725149   3.599643   2.360731   1.414801
     7  C    7.090625   5.968262   4.734622   3.667087   2.364433
     8  O    2.417049   1.212871   2.260987   2.674424   4.160099
     9  H    1.089728   2.166383   2.432616   3.870208   4.561776
    10  H    1.092921   2.128567   3.099546   4.343644   5.411564
    11  H    1.092917   2.128572   3.099630   4.343680   5.411826
    12  H    4.057668   2.663999   2.082930   1.093098   2.170206
    13  H    4.057527   2.663689   2.082933   1.093092   2.170229
    14  H    4.798753   3.908576   2.620146   2.165094   1.101500
    15  H    4.798682   3.908657   2.619992   2.165091   1.101497
    16  H    7.970571   6.751446   5.597717   4.386662   3.280667
    17  H    7.226637   6.214463   4.941199   4.040019   2.661715
    18  H    7.226670   6.214642   4.941182   4.040134   2.661667
                    6          7          8          9         10
     6  O    0.000000
     7  C    1.416440   0.000000
     8  O    4.964376   6.324109   0.000000
     9  H    5.917521   6.877079   3.291959   0.000000
    10  H    6.611827   7.753577   2.740686   1.785978   0.000000
    11  H    6.611969   7.753900   2.740468   1.785987   1.762632
    12  H    2.629806   3.967474   2.656488   4.360655   4.784971
    13  H    2.629970   3.967481   2.656021   4.360747   4.447061
    14  H    2.080018   2.647301   4.568626   4.491216   5.349634
    15  H    2.080014   2.647488   4.568831   4.490894   5.635155
    16  H    2.026816   1.091391   6.956713   7.841058   8.609091
    17  H    2.086203   1.100059   6.674307   6.918957   7.799018
    18  H    2.086209   1.100060   6.674646   6.918759   7.998631
                   11         12         13         14         15
    11  H    0.000000
    12  H    4.447209   0.000000
    13  H    4.784681   1.768690   0.000000
    14  H    5.635516   3.080323   2.518156   0.000000
    15  H    5.350022   2.518227   3.080332   1.779356   0.000000
    16  H    8.609308   4.539618   4.539724   3.626796   3.626888
    17  H    7.998961   4.584032   4.224924   2.467741   3.045167
    18  H    7.799559   4.225208   4.584141   3.044782   2.467895
                   16         17         18
    16  H    0.000000
    17  H    1.785086   0.000000
    18  H    1.785087   1.788143   0.000000
 Stoichiometry    C5H10O3
 Framework group  C1[X(C5H10O3)]
 Deg. of freedom    48
 Full point group                 C1      NOp   1
 Largest Abelian subgroup         C1      NOp   1
 Largest concise Abelian subgroup C1      NOp   1
                         Standard orientation:                         
 ---------------------------------------------------------------------
 Center     Atomic      Atomic             Coordinates (Angstroms)
 Number     Number       Type             X           Y           Z
 ---------------------------------------------------------------------
      1          6           0       -3.250232   -0.909060    0.000022
      2          6           0       -2.150303    0.122677    0.000114
      3          8           0       -0.921742   -0.451073   -0.000166
      4          6           0        0.202841    0.444802   -0.000187
      5          6           0        1.451452   -0.425613    0.000015
      6          8           0        2.563568    0.448950   -0.000225
      7          6           0        3.807634   -0.228251    0.000209
      8          8           0       -2.323230    1.323157    0.000162
      9          1           0       -2.856773   -1.925277   -0.000350
     10          1           0       -3.877671   -0.754893    0.881514
     11          1           0       -3.878030   -0.754367   -0.881118
     12          1           0        0.170360    1.086338   -0.884630
     13          1           0        0.170203    1.086591    0.884060
     14          1           0        1.462386   -1.074737    0.889858
     15          1           0        1.462358   -1.075185   -0.889498
     16          1           0        4.588593    0.534137   -0.000088
     17          1           0        3.920645   -0.858673    0.894594
     18          1           0        3.920809   -0.859537   -0.893549
 ---------------------------------------------------------------------
 Rotational constants (GHZ):      7.5131978      0.7342301      0.6802973
 Standard basis: 6-31+G(d,p) (6D, 7F)
 There are   202 symmetry adapted cartesian basis functions of A   symmetry.
 There are   202 symmetry adapted basis functions of A   symmetry.
   202 basis functions,   326 primitive gaussians,   202 cartesian basis functions
    32 alpha electrons       32 beta electrons
       nuclear repulsion energy       380.2803414853 Hartrees.
 NAtoms=   18 NActive=   18 NUniq=   18 SFac= 1.00D+00 NAtFMM=   60 NAOKFM=F Big=F
 Integral buffers will be    131072 words long.
 Raffenetti 2 integral format.
 Two-electron integral symmetry is turned on.
 One-electron integrals computed using PRISM.
 NBasis=   202 RedAO= T EigKep=  3.50D-05  NBF=   202
 NBsUse=   202 1.00D-06 EigRej= -1.00D+00 NBFU=   202
 Initial guess from the checkpoint file:  "mea.chk"
 B after Tr=     0.000000    0.000000    0.000000
         Rot=    1.000000   -0.000013    0.000000   -0.000235 Ang=  -0.03 deg.
 ExpMin= 4.38D-02 ExpMax= 5.48D+03 ExpMxC= 8.25D+02 IAcc=2 IRadAn=         4 AccDes= 0.00D+00
 Harris functional with IExCor=  402 and IRadAn=       4 diagonalized for initial guess.
 HarFok:  IExCor=  402 AccDes= 0.00D+00 IRadAn=         4 IDoV= 1 UseB2=F ITyADJ=14
 ICtDFT=  3500011 ScaDFX=  1.000000  1.000000  1.000000  1.000000
 FoFCou: FMM=F IPFlag=           0 FMFlag=      100000 FMFlg1=           0
         NFxFlg=           0 DoJE=T BraDBF=F KetDBF=T FulRan=T
         wScrn=  0.000000 ICntrl=     500 IOpCl=  0 I1Cent=   200000004 NGrid=           0
         NMat0=    1 NMatS0=      1 NMatT0=    0 NMatD0=    1 NMtDS0=    0 NMtDT0=    0
 Petite list used in FoFCou.
 Keep R1 ints in memory in canonical form, NReq=214523466.
 Requested convergence on RMS density matrix=1.00D-08 within 128 cycles.
 Requested convergence on MAX density matrix=1.00D-06.
 Requested convergence on             energy=1.00D-06.
 No special actions if energy rises.
 SCF Done:  E(RB3LYP) =  -422.251106362     A.U. after    9 cycles
            NFock=  9  Conv=0.72D-08     -V/T= 2.0093
 Calling FoFJK, ICntrl=      2127 FMM=F ISym2X=0 I1Cent= 0 IOpClX= 0 NMat=1 NMatS=1 NMatT=0.
 ***** Axes restored to original set *****
 -------------------------------------------------------------------
 Center     Atomic                   Forces (Hartrees/Bohr)
 Number     Number              X              Y              Z
 -------------------------------------------------------------------
      1        6          -0.000245024    0.000031604    0.000011469
      2        6          -0.000825029   -0.001235552   -0.000036738
      3        8          -0.001497505    0.002818877    0.000013413
      4        6           0.001641601   -0.003596208   -0.000004240
      5        6           0.000215910    0.000835762    0.000001381
      6        8           0.000525555   -0.000166504    0.000000386
      7        6          -0.000244355    0.000114570   -0.000000737
      8        8           0.000790326    0.000056415    0.000013356
      9        1          -0.000417527   -0.000148576    0.000000805
     10        1           0.000150850    0.000414283    0.000378607
     11        1           0.000153783    0.000411679   -0.000378814
     12        1          -0.000112576    0.000229862   -0.000507694
     13        1          -0.000111626    0.000228126    0.000509399
     14        1           0.000023037    0.000043745    0.000324728
     15        1           0.000021360    0.000043556   -0.000325709
     16        1           0.000361796   -0.000106008   -0.000000340
     17        1          -0.000215493    0.000012140    0.000323395
     18        1          -0.000215079    0.000012230   -0.000322668
 -------------------------------------------------------------------
 Cartesian Forces:  Max     0.003596208 RMS     0.000769971

 GradGradGradGradGradGradGradGradGradGradGradGradGradGradGradGradGradGrad
 Berny optimization.
 Using GEDIIS/GDIIS optimizer.
 FormGI is forming the generalized inverse of G from B-inverse, IUseBI=4.
 Internal  Forces:  Max     0.003014496 RMS     0.000447335
 Search for a local minimum.
 Step number   3 out of a maximum of   82
 All quantities printed in internal units (Hartrees-Bohrs-Radians)
 Mixed Optimization -- En-DIIS/RFO-DIIS
 Update second derivatives using D2CorX and points    1    2    3
 DE= -1.87D-04 DEPred=-1.65D-04 R= 1.13D+00
 TightC=F SS=  1.41D+00  RLast= 4.73D-02 DXNew= 8.4853D-01 1.4184D-01
 Trust test= 1.13D+00 RLast= 4.73D-02 DXMaxT set to 5.05D-01
 ITU=  1  1  0
 Use linear search instead of GDIIS.
     Eigenvalues ---    0.00481   0.00537   0.00937   0.01539   0.01600
     Eigenvalues ---    0.01647   0.02186   0.05407   0.05494   0.05522
     Eigenvalues ---    0.06007   0.07070   0.07430   0.10137   0.10563
     Eigenvalues ---    0.10934   0.11367   0.13578   0.13588   0.15522
     Eigenvalues ---    0.16000   0.16000   0.16000   0.16070   0.16236
     Eigenvalues ---    0.21809   0.22065   0.24293   0.25000   0.25155
     Eigenvalues ---    0.26676   0.30278   0.31000   0.32012   0.32047
     Eigenvalues ---    0.32097   0.32105   0.32225   0.32252   0.32289
     Eigenvalues ---    0.32320   0.32675   0.33419   0.38639   0.43808
     Eigenvalues ---    0.44610   0.52536   0.99196
 RFO step:  Lambda=-4.72420486D-05 EMin= 4.80500078D-03
 Quartic linear search produced a step of  0.16588.
 Iteration  1 RMS(Cart)=  0.00274946 RMS(Int)=  0.00001104
 Iteration  2 RMS(Cart)=  0.00000824 RMS(Int)=  0.00000949
 Iteration  3 RMS(Cart)=  0.00000000 RMS(Int)=  0.00000949
 Variable       Old X    -DE/DX   Delta X   Delta X   Delta X     New X
                                 (Linear)    (Quad)   (Total)
    R1        2.84987   0.00077  -0.00079   0.00289   0.00210   2.85197
    R2        2.05929   0.00044  -0.00054   0.00117   0.00064   2.05992
    R3        2.06532   0.00057  -0.00025   0.00161   0.00136   2.06668
    R4        2.06531   0.00056  -0.00025   0.00161   0.00136   2.06667
    R5        2.56234  -0.00060  -0.00015  -0.00145  -0.00160   2.56074
    R6        2.29199   0.00079   0.00076   0.00080   0.00156   2.29356
    R7        2.71705   0.00301   0.00250   0.00801   0.01051   2.72757
    R8        2.87627  -0.00092   0.00056  -0.00364  -0.00308   2.87319
    R9        2.06566   0.00035  -0.00081   0.00092   0.00011   2.06577
   R10        2.06564   0.00035  -0.00081   0.00093   0.00012   2.06576
   R11        2.67359   0.00024   0.00049   0.00069   0.00118   2.67477
   R12        2.08153   0.00025  -0.00051   0.00071   0.00020   2.08173
   R13        2.08153   0.00025  -0.00052   0.00071   0.00020   2.08172
   R14        2.67668   0.00013   0.00029   0.00039   0.00068   2.67737
   R15        2.06243   0.00032  -0.00027   0.00072   0.00044   2.06287
   R16        2.07881   0.00039  -0.00024   0.00115   0.00090   2.07971
   R17        2.07881   0.00038  -0.00024   0.00114   0.00090   2.07971
    A1        1.95481   0.00002  -0.00084   0.00052  -0.00032   1.95448
    A2        1.89881   0.00003  -0.00074   0.00002  -0.00073   1.89808
    A3        1.89882   0.00002  -0.00074  -0.00004  -0.00079   1.89803
    A4        1.91676   0.00003   0.00147   0.00055   0.00202   1.91878
    A5        1.91678   0.00003   0.00147   0.00057   0.00203   1.91881
    A6        1.87604  -0.00013  -0.00062  -0.00172  -0.00235   1.87369
    A7        1.95126   0.00044  -0.00065   0.00242   0.00178   1.95304
    A8        2.18115  -0.00019  -0.00053  -0.00051  -0.00104   2.18011
    A9        2.15077  -0.00025   0.00118  -0.00192  -0.00074   2.15003
   A10        2.03200  -0.00033  -0.00111  -0.00150  -0.00261   2.02939
   A11        1.86013  -0.00012  -0.00073  -0.00206  -0.00278   1.85735
   A12        1.92033  -0.00013  -0.00182  -0.00213  -0.00394   1.91639
   A13        1.92034  -0.00013  -0.00181  -0.00212  -0.00393   1.91641
   A14        1.93918   0.00008   0.00205   0.00096   0.00299   1.94217
   A15        1.93922   0.00008   0.00205   0.00095   0.00297   1.94220
   A16        1.88499   0.00021   0.00022   0.00421   0.00437   1.88937
   A17        1.86642   0.00020  -0.00033   0.00039   0.00006   1.86648
   A18        1.92331  -0.00015   0.00074  -0.00122  -0.00048   1.92283
   A19        1.92331  -0.00015   0.00074  -0.00122  -0.00048   1.92282
   A20        1.93544  -0.00005  -0.00034  -0.00001  -0.00034   1.93510
   A21        1.93544  -0.00005  -0.00034   0.00000  -0.00034   1.93510
   A22        1.88047   0.00019  -0.00044   0.00198   0.00154   1.88202
   A23        1.97671  -0.00045   0.00068  -0.00204  -0.00136   1.97535
   A24        1.86974  -0.00029   0.00031  -0.00241  -0.00210   1.86763
   A25        1.94386   0.00000  -0.00055   0.00037  -0.00019   1.94367
   A26        1.94387   0.00000  -0.00055   0.00036  -0.00019   1.94367
   A27        1.90396   0.00012   0.00090   0.00065   0.00155   1.90551
   A28        1.90396   0.00012   0.00090   0.00065   0.00154   1.90550
   A29        1.89771   0.00006  -0.00090   0.00039  -0.00052   1.89719
    D1       -0.00010  -0.00001   0.00002  -0.00074  -0.00072  -0.00081
    D2        3.14125   0.00001  -0.00003   0.00081   0.00078  -3.14115
    D3        2.12206   0.00006   0.00081   0.00030   0.00111   2.12318
    D4       -1.01977   0.00007   0.00076   0.00185   0.00261  -1.01716
    D5       -2.12229  -0.00007  -0.00077  -0.00176  -0.00252  -2.12481
    D6        1.01907  -0.00006  -0.00082  -0.00021  -0.00103   1.01804
    D7        3.14153   0.00001  -0.00002   0.00074   0.00072  -3.14093
    D8        0.00018  -0.00001   0.00004  -0.00078  -0.00074  -0.00057
    D9        3.14123   0.00000   0.00001   0.00005   0.00006   3.14128
   D10       -1.03782  -0.00005   0.00102  -0.00123  -0.00020  -1.03802
   D11        1.03703   0.00005  -0.00100   0.00133   0.00033   1.03737
   D12        3.14143   0.00000   0.00000   0.00004   0.00004   3.14147
   D13       -1.03665  -0.00002  -0.00018  -0.00043  -0.00061  -1.03726
   D14        1.03632   0.00002   0.00019   0.00050   0.00069   1.03702
   D15        1.04944   0.00019   0.00148   0.00334   0.00484   1.05428
   D16       -3.12863   0.00016   0.00130   0.00287   0.00419  -3.12445
   D17       -1.05567   0.00021   0.00167   0.00380   0.00549  -1.05018
   D18       -1.04973  -0.00019  -0.00148  -0.00327  -0.00476  -1.05449
   D19        1.05538  -0.00021  -0.00166  -0.00374  -0.00541   1.04997
   D20        3.12835  -0.00016  -0.00129  -0.00281  -0.00411   3.12424
   D21        3.14138   0.00000   0.00001   0.00006   0.00008   3.14145
   D22        1.04402   0.00009  -0.00049   0.00131   0.00082   1.04484
   D23       -1.04445  -0.00008   0.00051  -0.00118  -0.00067  -1.04512
   D24        3.14153   0.00000   0.00001   0.00003   0.00004   3.14157
   D25       -1.06094  -0.00003   0.00098  -0.00047   0.00051  -1.06043
   D26        1.06081   0.00004  -0.00096   0.00053  -0.00043   1.06039
         Item               Value     Threshold  Converged?
 Maximum Force            0.003014     0.000450     NO 
 RMS     Force            0.000447     0.000300     NO 
 Maximum Displacement     0.006693     0.001800     NO 
 RMS     Displacement     0.002749     0.001200     NO 
 Predicted change in Energy=-2.739749D-05
 GradGradGradGradGradGradGradGradGradGradGradGradGradGradGradGradGradGrad

                          Input orientation:                          
 ---------------------------------------------------------------------
 Center     Atomic      Atomic             Coordinates (Angstroms)
 Number     Number       Type             X           Y           Z
 ---------------------------------------------------------------------
      1          6           0       -0.545877    3.521888    0.000926
      2          6           0        0.443411    2.382159   -0.000460
      3          8           0       -0.174753    1.176285   -0.000394
      4          6           0        0.685480    0.017276   -0.000813
      5          6           0       -0.229499   -1.197018   -0.000200
      6          8           0        0.603669   -2.341246   -0.000769
      7          6           0       -0.120961   -3.558717   -0.000104
      8          8           0        1.650357    2.510012   -0.000269
      9          1           0       -1.576712    3.167460    0.000907
     10          1           0       -0.365162    4.143220    0.882595
     11          1           0       -0.365663    4.144866   -0.879677
     12          1           0        1.325383    0.031373   -0.886997
     13          1           0        1.326443    0.031501    0.884597
     14          1           0       -0.877579   -1.183834    0.890500
     15          1           0       -0.878778   -1.183823   -0.890025
     16          1           0        0.612754   -4.366992   -0.000648
     17          1           0       -0.755532   -3.647095    0.894708
     18          1           0       -0.756980   -3.647215   -0.893877
 ---------------------------------------------------------------------
                    Distance matrix (angstroms):
                    1          2          3          4          5
     1  C    0.000000
     2  C    1.509197   0.000000
     3  O    2.374782   1.355086   0.000000
     4  C    3.714640   2.377240   1.443365   0.000000
     5  C    4.729500   3.641883   2.373934   1.520426   0.000000
     6  O    5.974764   4.726123   3.602633   2.359940   1.415425
     7  C    7.093344   5.967623   4.735307   3.665798   2.364192
     8  O    2.418127   1.213699   2.260499   2.672961   4.156432
     9  H    1.090065   2.167394   2.435215   3.878296   4.567675
    10  H    1.093641   2.129534   3.101392   4.348296   5.414413
    11  H    1.093636   2.129498   3.101945   4.349058   5.415509
    12  H    4.058782   2.662708   2.085017   1.093159   2.170947
    13  H    4.058233   2.662454   2.085024   1.093154   2.170963
    14  H    4.800541   3.905782   2.618744   2.163391   1.101604
    15  H    4.800869   3.905859   2.618626   2.163386   1.101601
    16  H    7.973510   6.751275   5.598936   4.384871   3.279958
    17  H    7.227525   6.212141   4.939990   4.038080   2.660912
    18  H    7.227813   6.212284   4.939984   4.038161   2.660894
                    6          7          8          9         10
     6  O    0.000000
     7  C    1.416801   0.000000
     8  O    4.962888   6.321949   0.000000
     9  H    5.924518   6.881909   3.293359   0.000000
    10  H    6.615684   7.756199   2.740280   1.788109   0.000000
    11  H    6.616777   7.757495   2.740519   1.788125   1.762273
    12  H    2.633552   3.970798   2.652460   4.364123   4.785048
[...]
 3,-0.4079287,0.7335923,1.9813919,-0.2036382,2.0996388,-0.3942182,0.874
 9411,0.3289171,-0.2531258,1.5158379,-0.0034156,2.022493,-0.1005647,2.2
 247485,2.8781819,-0.3951796,4.3556747,-3.24164,0.2834819,-0.4552883,2.
 2549168,-0.1607775,-2.1419217,0.0225193,-0.9975465,0.0084719,-0.059099
 5,1.6682299,-0.0803484,2.1881298,-0.0004977,2.2815173,-3.4148792,0.260
 554,4.7926163,-3.2501223,0.2835917,-0.4581476,-2.258061,0.1606341,-2.1
 425377,0.022422,-0.9997513,0.0079497,0.058692,-1.667044,-0.0807723,-2.
 1926421,0.0002597,-2.2809042,-3.4153747,0.2601579,-4.7818148,3.5009956
 ,-3.1943105,4.4898514,-0.0017826,0.0008916,0.3026646,-1.6233706,3.4254
 574,-7.9016334,0.0006656,-0.002049,-0.3646263,-0.0018089,0.0008952,-0.
 00271,0.3678456,-1.5827698,-0.0005113,-2.6729652,-1.6265816,-0.9256849
 ,2.351179,1.0281259,-2.3618711,-0.2488943,-1.0321898,-1.0289453,0.4206
 085,1.9198576,-0.1810693,1.7586282,0.8938799,2.3697125,-3.0661778,-2.0
 50981,5.2706962,-2.6819755,-1.6296472,-0.9293691,-2.3548522,-1.0290534
 ,-2.36246,-0.2503222,-1.0350126,-1.0297793,-0.420856,-1.9186429,-0.180
 2005,-1.7634231,-0.8947951,-2.3690042,-3.0676627,-2.0486098,-5.2586237
 |HyperPolar=-90.583948,-7.0888242,-7.7810909,7.6690809,-0.0450636,0.00
 65007,-0.0308792,-39.9099462,-2.1161356,0.076837|PG=C01 [X(C5H10O3)]|N
 Imag=1||0.56721526,0.06192997,0.52096147,0.00007217,-0.00008050,0.5420
 6263,-0.12767486,0.05232280,0.00008983,0.97735012,0.06444617,-0.147809
 63,-0.00011145,-0.00211246,0.56547831,0.00005355,-0.00003956,-0.087569
 87,-0.00000477,0.00013016,0.22698481,0.00921257,0.01820454,0.00000550,
 -0.13376886,-0.03323955,0.00002307,0.33948118,-0.00935261,-0.04466769,
 -0.00000024,-0.04486372,-0.23155152,-0.00002460,0.01182827,0.50323857,
 0.00000230,-0.00004542,0.01071689,0.00003364,0.00000254,-0.06245082,-0
 .00007516,0.00008081,0.07861945,-0.00088480,-0.00443451,0.00000177,0.0
 2685629,0.00341127,-0.00001034,-0.13809800,0.05668276,0.00003985,0.543
 40309,-0.00355744,0.00107148,0.00000571,0.00753774,-0.06297880,-0.0000
 1951,0.03379878,-0.12752177,-0.00001736,0.04739043,0.45801391,0.000005
 94,-0.00000781,0.00792134,-0.00001205,0.00000459,0.00042080,0.00003198
 ,-0.00002705,-0.06973015,0.00004777,-0.00001000,0.62635627,0.00126927,
 0.00145410,0.00000058,-0.00928320,0.00156945,0.00000279,0.01274567,0.0
 3370122,-0.00001359,-0.14193632,-0.07891672,0.00003920,0.54865517,-0.0
 0010237,0.00002989,0.00000052,-0.00005595,-0.00511384,-0.00000157,-0.0
 0760697,-0.03368326,0.00000708,-0.07562646,-0.13979668,0.00004846,0.02
 871575,0.48770975,-0.00000040,-0.00000102,0.00029058,0.00000308,-0.000
 00104,-0.00041945,-0.00000818,-0.00001747,-0.00145209,0.00003895,0.000
 05155,-0.08535914,0.00002409,-0.00001741,0.58921991,-0.00031717,-0.000
 47600,-0.00000036,0.00136312,-0.00044743,-0.00000027,-0.00050182,-0.00
 822568,0.00000223,0.01341641,-0.00812370,-0.00000821,-0.14971806,0.045
 67665,0.00005391,0.31887604,-0.00056388,-0.00106845,-0.00000071,0.0072
 4529,0.00634201,-0.00000057,-0.00684788,-0.01611533,0.00000539,0.02549
 772,-0.03457881,-0.00001457,0.08870656,-0.16970708,-0.00005168,-0.0021
 6217,0.49826186,0.00000020,0.00000053,-0.00006408,-0.00000162,-0.00000
 072,0.00032901,0.00000178,0.00000722,0.00113164,-0.00000989,0.00000678
 ,0.00030681,0.00004996,-0.00002169,-0.06523089,-0.00015374,-0.00003269
 ,0.09511661,0.00012686,0.00036020,0.00000034,-0.00152785,-0.00188119,0
 .,0.00120301,0.00472018,-0.00000086,-0.00431003,0.00049581,0.00000201,
 0.01100340,0.02029583,-0.00001250,-0.13115157,-0.08883514,0.00005601,0
 .55954272,-0.00000590,0.00028528,0.00000053,-0.00101479,-0.00275108,-0
 .00000064,-0.00057426,0.00285730,0.00000027,0.00305763,-0.00430903,-0.
 00000160,-0.01338501,-0.04829708,0.00001232,-0.04457673,-0.18735353,0.
 00004123,-0.07627581,0.51548241,-0.00000016,-0.00000020,-0.00009530,0.
 00000139,0.00000158,0.00018110,-0.00000053,-0.00000358,0.00063658,0.00
 000244,-0.00000014,-0.00115189,-0.00000940,-0.00001087,-0.00458146,0.0
 0005189,0.00007243,-0.06064023,0.00000261,0.00005634,0.55452317,-0.042
 52785,0.00474121,0.00000162,-0.71806419,-0.03138020,-0.00007778,-0.059
 91752,-0.07209995,-0.00001187,-0.00991849,0.01539413,0.00000391,0.0027
 9207,0.00135490,-0.00000037,0.00000969,-0.00363778,0.00000059,0.000847
 17,0.00081330,-0.00000076,0.82768259,0.02864210,0.01217786,-0.00000738
 ,-0.04549742,-0.11314939,-0.00001987,-0.06766311,-0.01873867,-0.000006
 97,-0.00623978,0.00702626,0.00000798,-0.00181618,0.00241837,-0.0000018
 8,0.00013020,-0.00156671,0.00000020,0.00070450,0.00101016,-0.00000066,
 0.08656513,0.11434419,0.00004201,-0.00002631,0.01795365,-0.00012978,-0
 .00001350,-0.07852983,-0.00000168,0.00000204,0.02898654,-0.00000464,0.
 00000681,-0.00623969,0.00000074,0.00000085,0.00095567,-0.00000002,-0.0
 0000093,0.00002273,0.00000033,0.00000040,-0.00001796,0.00008285,0.0000
 3410,0.03200853,-0.29474898,-0.08344524,0.00000056,-0.01877707,-0.0137
 7700,-0.00000428,0.00269088,-0.00043244,-0.00000276,0.00016552,0.00032
 347,-0.00000036,0.00000483,-0.00002536,0.00000011,0.00003066,-0.000044
 32,-0.00000003,-0.00000387,-0.00000054,0.00000001,-0.00326555,0.005449
 54,0.00000475,0.31796570,-0.09042787,-0.08079577,-0.00000356,0.0230317
 3,0.01352696,0.00000617,-0.00016946,-0.00096154,0.00000085,0.00007590,
 0.00026537,-0.00000034,-0.00006340,-0.00006648,0.,-0.00001875,0.000195
 38,0.,-0.00005154,-0.00005844,0.00000003,0.00671355,-0.00503961,-0.000
 00486,0.09312215,0.08340125,-0.00000377,-0.00000565,-0.04847751,0.0000
 3125,0.00002194,-0.00358453,-0.00000192,0.00000069,-0.00015344,0.,0.00
 000006,-0.00010053,-0.00000017,0.00000005,0.00010841,0.00000004,0.0000
 0006,-0.00004753,0.,0.,0.00002863,0.00000681,-0.00000809,0.00261888,-0
 .00000088,0.00000688,0.04624062,-0.05570801,-0.02549863,-0.03708361,0.
 00362279,0.01025860,0.02110802,-0.00078146,0.00196699,-0.00080032,0.00
 035652,0.00035656,-0.00050474,-0.00022093,-0.00001974,-0.00009775,0.00
 007001,0.00013271,0.00002263,-0.00004058,-0.00002453,-0.00000197,-0.00
 052002,-0.00034311,-0.00290116,-0.00214436,-0.01603166,-0.02549110,0.0
 5492509,-0.02515865,-0.12933887,-0.12720568,-0.00494114,-0.01583715,-0
 .02283885,0.00282044,-0.00365779,0.00080433,-0.00041550,-0.00042294,0.
 00120293,0.00038055,0.00004423,0.00001170,-0.00010684,-0.00026086,0.00
 001957,0.00007447,0.00004553,-0.00002640,-0.00133707,0.00164342,0.0029
 3394,-0.00047027,-0.00537673,-0.00693660,0.02582403,0.14168026,-0.0366
 5467,-0.12626408,-0.22124019,-0.00072640,0.00168745,0.00154349,0.00031
 315,0.00084058,-0.00038370,-0.00002921,0.00025582,-0.00030523,-0.00003
 308,0.00003381,-0.00001610,0.00000776,-0.00002485,0.00000923,0.0000099
 9,0.00002458,0.00000023,0.00057784,0.00029640,0.00084575,0.00013740,0.
 00228942,0.00173427,0.04105781,0.13647083,0.23856225,-0.05566597,-0.02
 548482,0.03691333,0.00362247,0.01029432,-0.02109114,-0.00078265,0.0019
 7277,0.00080232,0.00035793,0.00035732,0.00050451,-0.00022113,-0.000019
 46,0.00009793,0.00007005,0.00013264,-0.00002276,-0.00004053,-0.0000244
 1,0.00000203,-0.00052272,-0.00035098,0.00290351,-0.00212114,-0.0160896
 2,0.02545990,0.00033954,0.00330709,-0.00464638,0.05486293,-0.02513962,
 -0.12986827,0.12740370,-0.00493837,-0.01588000,0.02280975,0.00282559,-
 0.00366761,-0.00080511,-0.00041817,-0.00042210,-0.00120145,0.00038070,
 0.00004446,-0.00001225,-0.00010688,-0.00026140,-0.00001932,0.00007464,
 0.00004572,0.00002624,-0.00133013,0.00164909,-0.00293132,-0.00046317,-
 0.00538741,0.00692031,0.00328271,0.01180025,-0.01555888,0.02580915,0.1
 4226708,0.03648268,0.12646918,-0.22076248,0.00071479,-0.00172284,0.001
 60015,-0.00030811,-0.00084929,-0.00038528,0.00002889,-0.00025835,-0.00
 030780,0.00003386,-0.00003383,-0.00001635,-0.00000796,0.00002452,0.000
 00926,-0.00000992,-0.00002460,0.00000028,-0.00058281,-0.00029305,0.000
 83488,-0.00013454,-0.00229460,0.00172625,0.00463583,0.01562831,-0.0207
 2738,-0.04086672,-0.13669603,0.23805079,-0.00010598,0.00026909,-0.0004
 0156,-0.00172669,-0.00357652,0.00010466,-0.01666757,0.01212792,0.01484
 912,-0.13324106,-0.00618020,0.12026965,-0.01166122,-0.00196650,0.01727
 822,0.00117518,0.00089058,-0.00071208,0.00006046,-0.00027901,-0.000218
 23,0.00145912,0.00049343,-0.00007119,0.00007737,-0.00004273,0.00004640
 ,0.00004587,-0.00003770,0.00001636,0.00001875,0.00013210,0.00003857,0.
 14965888,-0.00030885,-0.00037139,0.00140889,0.00691192,0.00442241,-0.0
 0157949,0.02325549,-0.01374816,-0.02531905,-0.00924117,-0.04842021,0.0
 1245044,-0.01592926,0.00033182,0.02330913,0.00048747,0.00191476,-0.000
 84168,-0.00000448,-0.00015428,0.00009710,-0.00318284,-0.00022712,0.000
 02298,-0.00016091,0.00016240,-0.00004931,-0.00007109,0.00012503,-0.000
 05673,0.00011732,-0.00038572,-0.00000506,0.00048806,0.05716060,-0.0001
 5308,-0.00014973,-0.00038241,0.00291242,0.00192377,0.00074998,-0.00131
 814,-0.00453347,0.00659677,0.12356296,0.00702298,-0.23721550,-0.001510
 83,-0.00083283,0.00163879,-0.00039444,0.00068645,0.00040561,-0.0002473
 2,0.00018301,0.00015526,-0.00179331,0.00095795,0.00031440,-0.00009061,
 0.00003576,-0.00000402,0.00000505,-0.00005274,-0.00000993,-0.00002172,
 0.00004470,-0.00001784,-0.13568875,-0.00664054,0.24565811,-0.00010511,
 0.00026822,0.00040003,-0.00173209,-0.00358011,-0.00010366,-0.01668508,
 0.01213146,-0.01482488,-0.13353324,-0.00620425,-0.12039489,-0.01167873
 ,-0.00196834,-0.01726036,0.00117616,0.00088919,0.00071088,0.00006105,-
 0.00027930,0.00021832,0.00146164,0.00048876,0.00007446,0.00007755,-0.0
 0004279,-0.00004649,0.00001882,0.00013199,-0.00003848,0.00004582,-0.00
 003715,-0.00001650,0.01179010,-0.00069988,0.01509833,0.14998519,-0.000
 31090,-0.00036815,-0.00140954,0.00691619,0.00442227,0.00157835,0.02327
 967,-0.01374258,0.02529336,-0.00927087,-0.04842257,-0.01247060,-0.0159
 5597,0.00032832,-0.02328898,0.00048820,0.00191441,0.00084095,-0.000004
 57,-0.00015443,-0.00009690,-0.00318565,-0.00023033,-0.00002415,-0.0001
 6088,0.00016256,0.00004970,0.00011731,-0.00038578,0.00000430,-0.000071
 10,0.00012457,0.00005708,-0.00070075,0.00238376,0.00154326,0.00051926,
 0.05716097,0.00015312,0.00015041,-0.00038309,-0.00291152,-0.00192178,0
 .00075126,0.00133819,0.00452352,0.00660664,-0.12368443,-0.00704589,-0.
 23692851,0.00153027,0.00083556,0.00166278,0.00039335,-0.00068777,0.000
 40414,0.00024728,-0.00018268,0.00015472,0.00179324,-0.00095955,0.00031
 361,0.00009070,-0.00003578,-0.00000412,0.00002181,-0.00004490,-0.00001
 797,-0.00000525,0.00005300,-0.00000977,-0.01513563,-0.00154639,-0.0203
 2596,0.13580371,0.00667033,0.24534059,-0.00001528,-0.00003407,0.000035
 85,-0.00048281,-0.00042762,-0.00013440,0.00112224,0.00086925,-0.000898
 20,-0.01207919,-0.00147248,0.01833440,-0.12459382,-0.00579293,0.106874
 42,-0.01917077,0.01434843,0.01728667,-0.00038006,-0.00318994,-0.001005
 15,0.00043917,-0.00013273,-0.00009662,0.00002379,-0.00001348,0.0000153
 6,0.00000605,-0.00002402,0.00000427,0.00001373,-0.00001264,-0.00000664
 ,-0.00158962,-0.00267756,-0.00036992,0.00060766,0.00076924,-0.00002549
 ,0.14363905,-0.00000543,-0.00003611,0.00003178,-0.00071017,-0.00002969
 ,-0.00002635,0.00022862,0.00212853,-0.00051333,-0.01606130,0.00016890,
 0.02383172,-0.00649415,-0.05065474,0.00504973,0.02588476,-0.01408727,-
 0.02406134,0.00429363,0.00490157,-0.00313878,0.00050901,-0.00050772,-0
 .00023824,0.00004263,-0.00002518,0.00002196,0.00000572,-0.00001523,0.0
 0000212,0.00002162,-0.00000269,-0.00000329,-0.00256459,-0.00449608,-0.
 00063662,0.00072879,0.00120527,-0.00053981,-0.00337428,0.05857130,0.00
 008130,0.00007536,0.00000816,-0.00003298,0.00022175,0.00002357,-0.0004
 5962,0.00074581,0.00062253,-0.00079822,-0.00124264,0.00047238,0.109795
 89,0.00529384,-0.21982265,0.00288553,-0.00590616,0.00698549,-0.0001868
 9,0.00129281,0.00132508,-0.00026138,-0.00006623,-0.00003688,-0.0000201
 0,0.00003011,-0.00003547,-0.00000874,0.00002666,0.00000059,-0.00003283
 ,-0.00000003,0.00000412,-0.00024105,-0.00050286,0.00146296,0.00001456,
 0.00048258,0.00104016,-0.12480741,-0.00030296,0.23066162,-0.00001538,-
 0.00003400,-0.00003591,-0.00048372,-0.00042881,0.00013455,0.00112435,0
 .00086973,0.00089775,-0.01210155,-0.00147250,-0.01831904,-0.12486932,-
 0.00580949,-0.10699426,-0.01919622,0.01435528,-0.01725384,-0.00037868,
 -0.00319112,0.00100780,0.00044028,-0.00013304,0.00009659,0.00002384,-0
 .00001351,-0.00001543,0.00001377,-0.00001264,0.00000659,0.00000603,-0.
 00002396,-0.00000431,0.00060766,0.00076860,0.00002587,-0.00158865,-0.0
 0267668,0.00037439,0.01121888,-0.00063895,0.01462571,0.14395645,-0.000
 00543,-0.00003605,-0.00003193,-0.00071091,-0.00003051,0.00002654,0.000
 22861,0.00212913,0.00051221,-0.01609115,0.00016651,-0.02381179,-0.0065
 0854,-0.05065576,-0.00505312,0.02591513,-0.01408476,0.02403044,0.00429
 766,0.00490215,0.00313215,0.00050951,-0.00050884,0.00023836,0.00004266
 ,-0.00002518,-0.00002200,0.00002163,-0.00000266,0.00000324,0.00000570,
 -0.00001516,-0.00000213,0.00072948,0.00120519,0.00053889,-0.00256328,-
 0.00449528,0.00064120,-0.00063832,0.00280083,0.00138907,-0.00336420,0.
 05857231,-0.00008125,-0.00007530,0.00000802,0.00003332,-0.00022173,0.0
 0002329,0.00045937,-0.00074648,0.00062101,0.00081452,0.00124434,0.0004
 9591,-0.10991511,-0.00529934,-0.21954632,-0.00285380,0.00588953,0.0070
 0979,0.00018863,-0.00128885,0.00132298,0.00026112,0.00006676,-0.000036
 90,0.00002004,-0.00003008,-0.00003542,0.00003279,0.00000008,0.00000406
 ,0.00000877,-0.00002656,0.00000056,-0.00001416,-0.00048346,0.00104007,
 0.00024488,0.00050665,0.00146206,-0.01466777,-0.00138993,-0.02212747,0
 .12491706,0.00031982,0.23034426,-0.00002260,-0.00001961,0.,0.00011879,
 -0.00006395,-0.00000004,-0.00021775,-0.00043938,0.00000023,0.00095122,
 -0.00049726,-0.00000021,-0.00116422,-0.00325850,0.00000118,0.01471429,
 -0.01982935,-0.00000841,-0.18353636,0.14380507,0.00008048,-0.00004162,
 0.00003032,-0.00000001,0.00000041,-0.00000103,0.,0.00000340,-0.0000058
 2,0.00000174,0.00000340,-0.00000582,-0.00000176,0.00003197,0.00007135,
 0.00005067,0.00003195,0.00007138,-0.00005075,0.00012812,-0.00022819,-0
 .00028385,0.00012886,-0.00022863,0.00028403,0.18974483,-0.00004901,-0.
 00010333,-0.00000009,0.00059268,0.00057584,0.,-0.00050123,-0.00143632,
 0.00000045,0.00171668,-0.00010675,-0.00000105,-0.00561207,-0.00284507,
 0.00000405,0.01688421,-0.03461414,-0.00000898,0.13105375,-0.18435270,-
 0.00008019,-0.00031811,-0.00019253,-0.00000009,-0.00000318,0.00001772,
 0.,0.00001330,-0.00002451,-0.00000298,0.00001329,-0.00002456,0.0000029
 5,-0.00002256,-0.00003965,0.00007261,-0.00002264,-0.00003968,-0.000072
 54,0.00012308,0.00004315,-0.00025541,0.00012352,0.00004307,0.00025529,
 -0.14279803,0.21621220,0.00000002,0.00000002,0.00000040,-0.00000010,0.
 00000001,0.00000017,0.00000018,0.00000040,0.00000529,-0.00000042,0.000
 00039,0.00061061,0.00000143,0.00000244,0.00009363,-0.00001125,0.000016
 58,0.00027448,0.00008136,-0.00008898,-0.05097236,0.00000003,0.,-0.0000
 1263,0.,0.,-0.00000147,0.00000124,-0.00000067,0.00000001,-0.00000124,0
 .00000068,0.00000002,-0.00005143,-0.00006351,-0.00002788,0.00005137,0.
 00006342,-0.00002788,-0.00027916,0.00032810,0.00029060,0.00027926,-0.0
 0032783,0.00028986,-0.00008757,0.00008554,0.04687760,-0.00001597,-0.00
 006160,0.00000513,0.00029383,0.00046739,0.00001894,-0.00007961,-0.0007
 2810,-0.00007381,0.00029746,0.00038512,-0.00017620,-0.00056254,0.00310
 354,-0.00128336,-0.01541151,-0.01513329,0.01475394,-0.12558283,-0.0024
 1405,0.11061663,-0.00017686,-0.00016376,-0.00002014,0.00000021,0.00001
 125,0.00000243,0.00000559,-0.00001555,-0.00000266,0.00000790,-0.000013
 39,0.00000201,0.00009115,0.00019144,-0.00004816,-0.00002436,-0.0000156
 4,0.00001901,0.00087459,-0.00126653,-0.00021007,0.00023824,-0.00037144
 ,0.00005872,-0.01042550,-0.00059575,0.01854378,0.13898012,-0.00001512,
 -0.00003115,0.00001433,0.00014327,0.00018191,-0.00000888,0.00006613,-0
 .00043060,-0.00016441,-0.00001688,0.00013357,-0.00002375,-0.00511134,0
 .00495667,0.00344898,-0.02559329,-0.01746253,0.02553104,0.00035308,-0.
 05104851,0.00427357,-0.00006450,-0.00005420,-0.00000590,0.00000142,0.0
 0000235,0.00000159,0.00000296,-0.00000632,-0.00000091,0.00000623,-0.00
 000990,0.00000012,0.00024204,0.00009583,-0.00013842,-0.00000214,0.0000
 4077,0.00002499,0.00124456,0.00056914,-0.00143564,0.00043538,-0.000533
 86,-0.00015461,0.01168501,0.00344200,-0.01956295,0.01492025,0.05795860
 ,0.00001642,0.00003791,0.00000667,-0.00011898,-0.00021302,-0.00002660,
 0.00005246,0.00044589,0.00000608,-0.00041294,-0.00007228,0.00037761,0.
 00006769,-0.00134794,0.00123790,0.00219533,0.00645612,0.00697460,0.112
 26367,0.00648028,-0.22059014,0.00005150,0.00007056,0.00000967,-0.00000
 280,-0.00000254,-0.00000651,-0.00000275,0.00001065,0.00000127,-0.00000
 698,0.00000322,-0.00000065,-0.00009173,-0.00022097,-0.00002438,-0.0000
 2279,-0.00002046,-0.00001404,-0.00030769,0.00145329,-0.00023014,-0.000
 04881,-0.00013168,-0.00064453,-0.00145317,-0.00051566,0.00128959,-0.12
 716929,-0.01211325,0.23313111,-0.00001600,-0.00006164,-0.00000526,0.00
 029394,0.00046764,-0.00001889,-0.00007958,-0.00072870,0.00007401,0.000
 29824,0.00038519,0.00017635,-0.00056094,0.00310541,0.00128530,-0.01543
 448,-0.01514459,-0.01472029,-0.12589232,-0.00244062,-0.11074740,-0.000
 17690,-0.00016386,0.00002000,0.00000022,0.00001126,-0.00000244,0.00000
 793,-0.00001336,-0.00000203,0.00000558,-0.00001559,0.00000265,-0.00002
 435,-0.00001560,-0.00001901,0.00009132,0.00019175,0.00004799,0.0002382
 8,-0.00037117,-0.00005985,0.00087514,-0.00126849,0.00020884,-0.0104492
 0,-0.00059795,-0.01852749,0.01149008,0.00170294,0.01499086,0.13933303,
 -0.00001515,-0.00003113,-0.00001439,0.00014332,0.00018192,0.00000892,0
 .00006632,-0.00043069,0.00016437,-0.00001660,0.00013367,0.00002388,-0.
 00511568,0.00495648,-0.00344260,-0.02562917,-0.01746754,-0.02549155,0.
 00032898,-0.05105105,-0.00430174,-0.00006452,-0.00005421,0.00000584,0.
 00000142,0.00000236,-0.00000159,0.00000624,-0.00000989,-0.00000014,0.0
 0000296,-0.00000634,0.00000091,-0.00000216,0.00004082,-0.00002502,0.00
 024222,0.00009592,0.00013806,0.00043550,-0.00053395,0.00015393,0.00124
 639,0.00056887,0.00143386,0.01171245,0.00344526,0.01954636,0.00170009,
 0.00219620,-0.00032012,0.01495739,0.05796332,-0.00001639,-0.00003783,0
 .00000658,0.00011848,0.00021229,-0.00002650,-0.00005233,-0.00044477,0.
 00000608,0.00041293,0.00007174,0.00037672,-0.00006432,0.00134286,0.001
 23678,-0.00215997,-0.00643116,0.00700332,-0.11239473,-0.00650443,-0.22
 027871,-0.00005122,-0.00007030,0.00000958,0.00000279,0.00000253,-0.000
 00650,0.00000697,-0.00000318,-0.00000065,0.00000274,-0.00001063,0.0000
 0126,0.00002282,0.00002051,-0.00001403,0.00009151,0.00022065,-0.000024
 61,0.00004749,0.00013195,-0.00064466,0.00030604,-0.00145146,-0.0002312
 3,0.00146745,0.00051612,0.00130998,-0.01503691,0.00031410,-0.02149752,
 0.12729664,0.01212101,0.23277412||-0.00005840,-0.00005577,0.00007056,0
 .00000444,-0.00004017,-0.00021855,-0.00020493,0.00016694,0.00005684,0.
 00008306,-0.00027004,0.00000285,0.00005982,0.00012455,0.00000288,0.000
 02887,0.00002611,-0.00000066,0.00001152,-0.00003219,0.00000019,0.00008
 446,0.00004522,0.00008309,-0.00002716,-0.00002856,0.00000412,0.0000214
 0,0.00005236,0.00002673,0.00003963,0.00002913,-0.00002644,0.00000131,0
 .00001912,-0.00005760,0.00000293,0.00001475,0.00005655,-0.00000379,-0.
 00001289,0.00004559,-0.00000383,-0.00001212,-0.00004613,0.00002239,-0.
 00002650,-0.00000011,-0.00003086,0.00000009,0.00002698,-0.00003089,0.,
 -0.00002690|||@


 THERE'S SMALL CHOICE IN A BOWL OF ROTTEN APPLES.
                     SHAKESPEARE
 Job cpu time:       0 days  0 hours  3 minutes 53.0 seconds.
 File lengths (MBytes):  RWF=     84 Int=      0 D2E=      0 Chk=      4 Scr=      1
 Normal termination of Gaussian 09 at Fri Apr 01 14:00:22 2022.
