 Entering Link 1 = C:\data\G09W\l1.exe PID=     19484.
  
 Copyright (c) 1988,1990,1992,1993,1995,1998,2003,2009,2013,
            Gaussian, Inc.  All Rights Reserved.
  
 This is part of the Gaussian(R) 09 program.  It is based on
 the Gaussian(R) 03 system (copyright 2003, Gaussian, Inc.),
 the Gaussian(R) 98 system (copyright 1998, Gaussian, Inc.),
 the Gaussian(R) 94 system (copyright 1995, Gaussian, Inc.),
 the Gaussian 92(TM) system (copyright 1992, Gaussian, Inc.),
 the Gaussian 90(TM) system (copyright 1990, Gaussian, Inc.),
 the Gaussian 88(TM) system (copyright 1988, Gaussian, Inc.),
 the Gaussian 86(TM) system (copyright 1986, Carnegie Mellon
 University), and the Gaussian 82(TM) system (copyright 1983,
 Carnegie Mellon University). Gaussian is a federally registered
 trademark of Gaussian, Inc.
  
 This software contains proprietary and confidential information,
 including trade secrets, belonging to Gaussian, Inc.
  
 This software is provided under written license and may be
 used, copied, transmitted, or stored only in accord with that
 written license.
  
 The following legend is applicable only to US Government
 contracts under FAR:
  
                    RESTRICTED RIGHTS LEGEND
  
 Use, reproduction and disclosure by the US Government is
 subject to restrictions as set forth in subparagraphs (a)
 and (c) of the Commercial Computer Software - Restricted
 Rights clause in FAR 52.227-19.
  
 Gaussian, Inc.
 340 Quinnipiac St., Bldg. 40, Wallingford CT 06492
  
  
 ---------------------------------------------------------------
 Warning -- This program may not be used in any manner that
 competes with the business of Gaussian, Inc. or will provide
 assistance to any competitor of Gaussian, Inc.  The licensee
 of this program is prohibited from giving any competitor of
 Gaussian, Inc. access to this program.  By using this program,
 the user acknowledges that Gaussian, Inc. is engaged in the
 business of creating and licensing software in the field of
 computational chemistry and represents and warrants to the
 licensee that it is not a competitor of Gaussian, Inc. and that
 it will not use this program in any manner prohibited above.
 ---------------------------------------------------------------
  

 Cite this work as:
 Gaussian 09, Revision D.01,
 M. J. Frisch, G. W. Trucks, H. B. Schlegel, G. E. Scuseria, 
 M. A. Robb, J. R. Cheeseman, G. Scalmani, V. Barone, B. Mennucci, 
 G. A. Petersson, H. Nakatsuji, M. Caricato, X. Li, H. P. Hratchian, 
 A. F. Izmaylov, J. Bloino, G. Zheng, J. L. Sonnenberg, M. Hada, 
 M. Ehara, K. Toyota, R. Fukuda, J. Hasegawa, M. Ishida, T. Nakajima, 
 Y. Honda, O. Kitao, H. Nakai, T. Vreven, J. A. Montgomery, Jr., 
 J. E. Peralta, F. Ogliaro, M. Bearpark, J. J. Heyd, E. Brothers, 
 K. N. Kudin, V. N. Staroverov, T. Keith, R. Kobayashi, J. Normand, 
 K. Raghavachari, A. Rendell, J. C. Burant, S. S. Iyengar, J. Tomasi, 
 M. Cossi, N. Rega, J. M. Millam, M. Klene, J. E. Knox, J. B. Cross, 
 V. Bakken, C. Adamo, J. Jaramillo, R. Gomperts, R. E. Stratmann, 
 O. Yazyev, A. J. Austin, R. Cammi, C. Pomelli, J. W. Ochterski, 
 R. L. Martin, K. Morokuma, V. G. Zakrzewski, G. A. Voth, 
 P. Salvador, J. J. Dannenberg, S. Dapprich, A. D. Daniels, 
 O. Farkas, J. B. Foresman, J. V. Ortiz, J. Cioslowski, 
 and D. J. Fox, Gaussian, Inc., Wallingford CT, 2013.
 
 ******************************************
 Gaussian 09:  EM64W-G09RevD.01 13-Apr-2013
                18-Apr-2022 
 ******************************************
 %NProcShared=6
 Will use up to    6 processors via shared memory.
 %mem=12GB
 %Chk=mea.chk
 -------------------------------
 # B3LYP/6-31G(d) opt freq=Raman
 -------------------------------
 1/14=-1,18=20,19=15,26=3,38=1/1,3;
 2/9=110,12=2,17=6,18=5,40=1/2;
 3/5=1,6=6,7=1,11=2,16=1,25=1,30=1,71=1,74=-5/1,2,3;
 4//1;
 5/5=2,38=5/2;
 6/7=2,8=2,9=2,10=2,28=1/1;
 7//1,2,3,16;
 1/14=-1,18=20,19=15,26=3/3(2);
 2/9=110/2;
 99//99;
 2/9=110/2;
 3/5=1,6=6,7=1,11=2,16=1,25=1,30=1,71=1,74=-5/1,2,3;
 4/5=5,16=3,69=1/1;
 5/5=2,38=5/2;
 7//1,2,3,16;
 1/14=-1,18=20,19=15,26=3/3(-5);
 2/9=110/2;
 6/7=2,8=2,9=2,10=2,19=2,28=1/1;
 99/9=1/99;
 ------------
 formaldehyde
 ------------
 Symbolic Z-matrix:
 Charge =  0 Multiplicity = 1
 C                    0    -0.0238    0.        0. 
 O                    0     1.1843    0.        0. 
 H                    0    -0.5803   -0.9639    0. 
 H                    0    -0.5803    0.9639    0. 
 

 GradGradGradGradGradGradGradGradGradGradGradGradGradGradGradGradGradGrad
 Berny optimization.
 Initialization pass.
                           ----------------------------
                           !    Initial Parameters    !
                           ! (Angstroms and Degrees)  !
 --------------------------                            --------------------------
 ! Name  Definition              Value          Derivative Info.                !
 --------------------------------------------------------------------------------
 ! R1    R(1,2)                  1.2081         estimate D2E/DX2                !
 ! R2    R(1,3)                  1.113          estimate D2E/DX2                !
 ! R3    R(1,4)                  1.113          estimate D2E/DX2                !
 ! A1    A(2,1,3)              119.9996         estimate D2E/DX2                !
 ! A2    A(2,1,4)              119.9996         estimate D2E/DX2                !
 ! A3    A(3,1,4)              120.0007         estimate D2E/DX2                !
 ! D1    D(2,1,4,3)            180.0            estimate D2E/DX2                !
 --------------------------------------------------------------------------------
 Trust Radius=3.00D-01 FncErr=1.00D-07 GrdErr=1.00D-06
 Number of steps in this run=     20 maximum allowed number of steps=    100.
 GradGradGradGradGradGradGradGradGradGradGradGradGradGradGradGradGradGrad

                          Input orientation:                          
 ---------------------------------------------------------------------
 Center     Atomic      Atomic             Coordinates (Angstroms)
 Number     Number       Type             X           Y           Z
 ---------------------------------------------------------------------
      1          6           0       -0.023800    0.000000    0.000000
      2          8           0        1.184300    0.000000    0.000000
      3          1           0       -0.580300   -0.963900    0.000000
      4          1           0       -0.580300    0.963900    0.000000
 ---------------------------------------------------------------------
                    Distance matrix (angstroms):
                    1          2          3          4
     1  C    0.000000
     2  O    1.208100   0.000000
     3  H    1.113012   2.010700   0.000000
     4  H    1.113012   2.010700   1.927800   0.000000
 Stoichiometry    CH2O
 Framework group  C2V[C2(CO),SGV(H2)]
 Deg. of freedom     3
 Full point group                 C2V     NOp   4
 Largest Abelian subgroup         C2V     NOp   4
 Largest concise Abelian subgroup C2      NOp   2
                         Standard orientation:                         
 ---------------------------------------------------------------------
 Center     Atomic      Atomic             Coordinates (Angstroms)
 Number     Number       Type             X           Y           Z
 ---------------------------------------------------------------------
      1          6           0        0.000000    0.000000   -0.534488
      2          8           0        0.000000    0.000000    0.673613
      3          1           0        0.000000    0.963900   -1.090988
      4          1           0        0.000000   -0.963900   -1.090988
 ---------------------------------------------------------------------
 Rotational constants (GHZ):    269.8597394     39.0877855     34.1424312
 Standard basis: 6-31G(d) (6D, 7F)
 There are    18 symmetry adapted cartesian basis functions of A1  symmetry.
 There are     2 symmetry adapted cartesian basis functions of A2  symmetry.
 There are     6 symmetry adapted cartesian basis functions of B1  symmetry.
 There are     8 symmetry adapted cartesian basis functions of B2  symmetry.
 There are    18 symmetry adapted basis functions of A1  symmetry.
 There are     2 symmetry adapted basis functions of A2  symmetry.
 There are     6 symmetry adapted basis functions of B1  symmetry.
 There are     8 symmetry adapted basis functions of B2  symmetry.
    34 basis functions,    64 primitive gaussians,    34 cartesian basis functions
     8 alpha electrons        8 beta electrons
       nuclear repulsion energy        31.2159085845 Hartrees.
 NAtoms=    4 NActive=    4 NUniq=    3 SFac= 1.78D+00 NAtFMM=   60 NAOKFM=F Big=F
 Integral buffers will be    131072 words long.
 Raffenetti 2 integral format.
 Two-electron integral symmetry is turned on.
 One-electron integrals computed using PRISM.
 NBasis=    34 RedAO= T EigKep=  1.78D-02  NBF=    18     2     6     8
 NBsUse=    34 1.00D-06 EigRej= -1.00D+00 NBFU=    18     2     6     8
 ExpMin= 1.61D-01 ExpMax= 5.48D+03 ExpMxC= 8.25D+02 IAcc=1 IRadAn=         1 AccDes= 0.00D+00
 Harris functional with IExCor=  402 and IRadAn=       1 diagonalized for initial guess.
 HarFok:  IExCor=  402 AccDes= 0.00D+00 IRadAn=         1 IDoV= 1 UseB2=F ITyADJ=14
 ICtDFT=  3500011 ScaDFX=  1.000000  1.000000  1.000000  1.000000
 FoFCou: FMM=F IPFlag=           0 FMFlag=      100000 FMFlg1=           0
         NFxFlg=           0 DoJE=T BraDBF=F KetDBF=T FulRan=T
         wScrn=  0.000000 ICntrl=     500 IOpCl=  0 I1Cent=   200000004 NGrid=           0
         NMat0=    1 NMatS0=      1 NMatT0=    0 NMatD0=    1 NMtDS0=    0 NMtDT0=    0
 Petite list used in FoFCou.
 Initial guess orbital symmetries:
       Occupied  (A1) (A1) (A1) (A1) (B2) (A1) (B1) (B2)
       Virtual   (B1) (A1) (B2) (A1) (B1) (A1) (B2) (A1) (B2) (A1)
                 (A1) (B1) (B2) (A1) (B1) (A2) (A1) (B2) (A2) (A1)
                 (A1) (B1) (B2) (A1) (A1) (A1)
 The electronic state of the initial guess is 1-A1.
 Keep R1 ints in memory in symmetry-blocked form, NReq=1062354.
 Requested convergence on RMS density matrix=1.00D-08 within 128 cycles.
 Requested convergence on MAX density matrix=1.00D-06.
 Requested convergence on             energy=1.00D-06.
 No special actions if energy rises.
 Integral accuracy reduced to 1.0D-05 until final iterations.
 Initial convergence to 1.0D-05 achieved.  Increase integral accuracy.
 SCF Done:  E(RB3LYP) =  -114.499778490     A.U. after   12 cycles
            NFock= 12  Conv=0.16D-08     -V/T= 2.0090

 **********************************************************************

            Population analysis using the SCF density.

 **********************************************************************

 Orbital symmetries:
       Occupied  (A1) (A1) (A1) (A1) (B2) (A1) (B1) (B2)
       Virtual   (B1) (A1) (B2) (A1) (B1) (A1) (B2) (A1) (B2) (A1)
                 (A1) (B1) (B2) (A1) (A2) (B1) (A1) (B2) (A2) (A1)
                 (A1) (B1) (B2) (A1) (A1) (A1)
 The electronic state is 1-A1.
 Alpha  occ. eigenvalues --  -19.16708 -10.28846  -1.05883  -0.63322  -0.49973
 Alpha  occ. eigenvalues --   -0.44559  -0.39751  -0.26695
 Alpha virt. eigenvalues --   -0.04144   0.09804   0.18074   0.22006   0.50709
 Alpha virt. eigenvalues --    0.61199   0.64458   0.68540   0.82033   0.84022
 Alpha virt. eigenvalues --    0.88578   0.96136   1.06440   1.37755   1.50563
 Alpha virt. eigenvalues --    1.51147   1.68863   1.84740   1.93116   2.12911
 Alpha virt. eigenvalues --    2.29945   2.54170   2.62795   2.91013   3.68685
 Alpha virt. eigenvalues --    4.05089
          Condensed to atoms (all electrons):
               1          2          3          4
     1  C    4.706057   0.554129   0.330757   0.330757
     2  O    0.554129   7.887328  -0.058379  -0.058379
     3  H    0.330757  -0.058379   0.690237  -0.085814
     4  H    0.330757  -0.058379  -0.085814   0.690237
 Mulliken charges:
               1
     1  C    0.078301
     2  O   -0.324699
     3  H    0.123199
     4  H    0.123199
 Sum of Mulliken charges =   0.00000
 Mulliken charges with hydrogens summed into heavy atoms:
               1
     1  C    0.324699
     2  O   -0.324699
 Electronic spatial extent (au):  <R**2>=             60.1038
 Charge=              0.0000 electrons
 Dipole moment (field-independent basis, Debye):
    X=              0.0000    Y=              0.0000    Z=             -2.1885  Tot=              2.1885
 Quadrupole moment (field-independent basis, Debye-Ang):
   XX=            -11.4236   YY=            -11.3729   ZZ=            -12.0169
   XY=              0.0000   XZ=              0.0000   YZ=              0.0000
 Traceless Quadrupole moment (field-independent basis, Debye-Ang):
   XX=              0.1808   YY=              0.2316   ZZ=             -0.4124
   XY=              0.0000   XZ=              0.0000   YZ=              0.0000
 Octapole moment (field-independent basis, Debye-Ang**2):
  XXX=              0.0000  YYY=              0.0000  ZZZ=              1.3977  XYY=              0.0000
  XXY=              0.0000  XXZ=              0.9185  XZZ=              0.0000  YZZ=              0.0000
  YYZ=             -0.0451  XYZ=              0.0000
 Hexadecapole moment (field-independent basis, Debye-Ang**3):
 XXXX=             -9.2272 YYYY=            -18.1116 ZZZZ=            -44.1089 XXXY=              0.0000
 XXXZ=              0.0000 YYYX=              0.0000 YYYZ=              0.0000 ZZZX=              0.0000
 ZZZY=              0.0000 XXYY=             -4.7998 XXZZ=             -8.8101 YYZZ=            -10.0699
 XXYZ=              0.0000 YYXZ=              0.0000 ZZXY=              0.0000
 N-N= 3.121590858452D+01 E-N=-3.308530918202D+02  KE= 1.134795737054D+02
 Symmetry A1   KE= 1.031339640998D+02
 Symmetry A2   KE= 6.730969040720D-35
 Symmetry B1   KE= 3.624657685588D+00
 Symmetry B2   KE= 6.720951919964D+00
 Calling FoFJK, ICntrl=      2127 FMM=F ISym2X=1 I1Cent= 0 IOpClX= 0 NMat=1 NMatS=1 NMatT=0.
 ***** Axes restored to original set *****
 -------------------------------------------------------------------
 Center     Atomic                   Forces (Hartrees/Bohr)
 Number     Number              X              Y              Z
 -------------------------------------------------------------------
      1        6           0.009178410    0.000000000    0.000000000
      2        8           0.001606088    0.000000000    0.000000000
      3        1          -0.005392249    0.006191693    0.000000000
      4        1          -0.005392249   -0.006191693    0.000000000
 -------------------------------------------------------------------
 Cartesian Forces:  Max     0.009178410 RMS     0.004297766

 GradGradGradGradGradGradGradGradGradGradGradGradGradGradGradGradGradGrad
 Berny optimization.
 FormGI is forming the generalized inverse of G from B-inverse, IUseBI=4.
 Internal  Forces:  Max     0.010888937 RMS     0.005273234
 Search for a local minimum.
 Step number   1 out of a maximum of   20
 All quantities printed in internal units (Hartrees-Bohrs-Radians)
 Mixed Optimization -- RFO/linear search
 Second derivative matrix not updated -- first step.
 The second derivative matrix:
                          R1        R2        R3        A1        A2
           R1           1.00856
           R2           0.00000   0.32283
           R3           0.00000   0.00000   0.32283
           A1           0.00000   0.00000   0.00000   0.16000
           A2           0.00000   0.00000   0.00000   0.00000   0.16000
           A3           0.00000   0.00000   0.00000   0.00000   0.00000
           D1           0.00000   0.00000   0.00000   0.00000   0.00000
                          A3        D1
           A3           0.16000
           D1           0.00000   0.00230
 ITU=  0
     Eigenvalues ---    0.00230   0.16000   0.16000   0.32283   0.32283
     Eigenvalues ---    1.00856
 RFO step:  Lambda=-1.15008496D-03 EMin= 2.30000000D-03
 Linear search not attempted -- first point.
 Iteration  1 RMS(Cart)=  0.03165682 RMS(Int)=  0.00065188
 Iteration  2 RMS(Cart)=  0.00058183 RMS(Int)=  0.00000004
 Iteration  3 RMS(Cart)=  0.00000004 RMS(Int)=  0.00000000
 ClnCor:  largest displacement from symmetrization is 2.71D-10 for atom     1.
 Variable       Old X    -DE/DX   Delta X   Delta X   Delta X     New X
                                 (Linear)    (Quad)   (Total)
    R1        2.28298   0.00161   0.00000   0.00159   0.00159   2.28457
    R2        2.10329  -0.00267   0.00000  -0.00823  -0.00823   2.09506
    R3        2.10329  -0.00267   0.00000  -0.00823  -0.00823   2.09506
    A1        2.09439   0.00544   0.00000   0.03379   0.03379   2.12817
    A2        2.09439   0.00544   0.00000   0.03379   0.03379   2.12817
    A3        2.09441  -0.01089   0.00000  -0.06757  -0.06757   2.02684
    D1        3.14159   0.00000   0.00000   0.00000   0.00000   3.14159
         Item               Value     Threshold  Converged?
 Maximum Force            0.010889     0.000450     NO 
 RMS     Force            0.005273     0.000300     NO 
 Maximum Displacement     0.043546     0.001800     NO 
 RMS     Displacement     0.031814     0.001200     NO 
 Predicted change in Energy=-5.790598D-04
 GradGradGradGradGradGradGradGradGradGradGradGradGradGradGradGradGradGrad

                          Input orientation:                          
 ---------------------------------------------------------------------
 Center     Atomic      Atomic             Coordinates (Angstroms)
 Number     Number       Type             X           Y           Z
 ---------------------------------------------------------------------
      1          6           0       -0.009041    0.000000    0.000000
      2          8           0        1.199900    0.000000    0.000000
      3          1           0       -0.595480   -0.940857    0.000000
      4          1           0       -0.595480    0.940857    0.000000
 ---------------------------------------------------------------------
                    Distance matrix (angstroms):
                    1          2          3          4
     1  C    0.000000
     2  O    1.208942   0.000000
     3  H    1.108657   2.026968   0.000000
     4  H    1.108657   2.026968   1.881713   0.000000
 Stoichiometry    CH2O
 Framework group  C2V[C2(CO),SGV(H2)]
 Deg. of freedom     3
 Full point group                 C2V     NOp   4
 Largest Abelian subgroup         C2V     NOp   4
 Largest concise Abelian subgroup C2      NOp   2
                         Standard orientation:                         
 ---------------------------------------------------------------------
 Center     Atomic      Atomic             Coordinates (Angstroms)
 Number     Number       Type             X           Y           Z
 ---------------------------------------------------------------------
      1          6           0        0.000000    0.000000   -0.531166
      2          8           0        0.000000    0.000000    0.677776
      3          1           0        0.000000    0.940857   -1.117604
      4          1           0        0.000000   -0.940857   -1.117604
 ---------------------------------------------------------------------
 Rotational constants (GHZ):    283.2404171     38.6149819     33.9821038
 Standard basis: 6-31G(d) (6D, 7F)
 There are    18 symmetry adapted cartesian basis functions of A1  symmetry.
 There are     2 symmetry adapted cartesian basis functions of A2  symmetry.
 There are     6 symmetry adapted cartesian basis functions of B1  symmetry.
 There are     8 symmetry adapted cartesian basis functions of B2  symmetry.
 There are    18 symmetry adapted basis functions of A1  symmetry.
 There are     2 symmetry adapted basis functions of A2  symmetry.
 There are     6 symmetry adapted basis functions of B1  symmetry.
 There are     8 symmetry adapted basis functions of B2  symmetry.
    34 basis functions,    64 primitive gaussians,    34 cartesian basis functions
     8 alpha electrons        8 beta electrons
       nuclear repulsion energy        31.1966074420 Hartrees.
 NAtoms=    4 NActive=    4 NUniq=    3 SFac= 1.78D+00 NAtFMM=   60 NAOKFM=F Big=F
 Integral buffers will be    131072 words long.
 Raffenetti 2 integral format.
 Two-electron integral symmetry is turned on.
 One-electron integrals computed using PRISM.
 NBasis=    34 RedAO= T EigKep=  1.81D-02  NBF=    18     2     6     8
 NBsUse=    34 1.00D-06 EigRej= -1.00D+00 NBFU=    18     2     6     8
 Initial guess from the checkpoint file:  "mea.chk"
 B after Tr=     0.000000    0.000000    0.000000
         Rot=    1.000000    0.000000    0.000000    0.000000 Ang=   0.00 deg.
 Initial guess orbital symmetries:
       Occupied  (A1) (A1) (A1) (A1) (B2) (A1) (B1) (B2)
       Virtual   (A1) (A1) (A1) (A1) (A1) (A1) (A1) (A1) (A1) (A1)
                 (A1) (A1) (A1) (A2) (A2) (B1) (B1) (B1) (B1) (B1)
                 (B2) (B2) (B2) (B2) (B2) (B2)
 ExpMin= 1.61D-01 ExpMax= 5.48D+03 ExpMxC= 8.25D+02 IAcc=1 IRadAn=         1 AccDes= 0.00D+00
 Harris functional with IExCor=  402 and IRadAn=       1 diagonalized for initial guess.
 HarFok:  IExCor=  402 AccDes= 0.00D+00 IRadAn=         1 IDoV= 1 UseB2=F ITyADJ=14
 ICtDFT=  3500011 ScaDFX=  1.000000  1.000000  1.000000  1.000000
 FoFCou: FMM=F IPFlag=           0 FMFlag=      100000 FMFlg1=           0
         NFxFlg=           0 DoJE=T BraDBF=F KetDBF=T FulRan=T
         wScrn=  0.000000 ICntrl=     500 IOpCl=  0 I1Cent=   200000004 NGrid=           0
         NMat0=    1 NMatS0=      1 NMatT0=    0 NMatD0=    1 NMtDS0=    0 NMtDT0=    0
 Petite list used in FoFCou.
 Keep R1 ints in memory in symmetry-blocked form, NReq=1062354.
 Requested convergence on RMS density matrix=1.00D-08 within 128 cycles.
 Requested convergence on MAX density matrix=1.00D-06.
 Requested convergence on             energy=1.00D-06.
 No special actions if energy rises.
 Integral accuracy reduced to 1.0D-05 until final iterations.
 Initial convergence to 1.0D-05 achieved.  Increase integral accuracy.
 SCF Done:  E(RB3LYP) =  -114.500441743     A.U. after   10 cycles
            NFock= 10  Conv=0.14D-08     -V/T= 2.0090
 Calling FoFJK, ICntrl=      2127 FMM=F ISym2X=1 I1Cent= 0 IOpClX= 0 NMat=1 NMatS=1 NMatT=0.
 ***** Axes restored to original set *****
 -------------------------------------------------------------------
 Center     Atomic                   Forces (Hartrees/Bohr)
 Number     Number              X              Y              Z
 -------------------------------------------------------------------
      1        6           0.006028081    0.000000000    0.000000000
      2        8          -0.003074809    0.000000000    0.000000000
      3        1          -0.001476636    0.000122601    0.000000000
      4        1          -0.001476636   -0.000122601    0.000000000
 -------------------------------------------------------------------
 Cartesian Forces:  Max     0.006028081 RMS     0.002044977

 GradGradGradGradGradGradGradGradGradGradGradGradGradGradGradGradGradGrad
 Berny optimization.
 Using GEDIIS/GDIIS optimizer.
 FormGI is forming the generalized inverse of G from B-inverse, IUseBI=4.
 Internal  Forces:  Max     0.003074809 RMS     0.001485852
 Search for a local minimum.
 Step number   2 out of a maximum of   20
 All quantities printed in internal units (Hartrees-Bohrs-Radians)
 Mixed Optimization -- RFO/linear search
 Update second derivatives using D2CorX and points    1    2
 DE= -6.63D-04 DEPred=-5.79D-04 R= 1.15D+00
 TightC=F SS=  1.41D+00  RLast= 8.36D-02 DXNew= 5.0454D-01 2.5076D-01
 Trust test= 1.15D+00 RLast= 8.36D-02 DXMaxT set to 3.00D-01
 The second derivative matrix:
                          R1        R2        R3        A1        A2
           R1           1.02868
           R2          -0.01224   0.32806
           R3          -0.01224   0.00523   0.32806
           A1           0.01403  -0.00287  -0.00287   0.15531
           A2           0.01403  -0.00287  -0.00287  -0.00469   0.15531
           A3          -0.02805   0.00573   0.00573   0.00938   0.00938
           D1           0.00000   0.00000   0.00000   0.00000   0.00000
                          A3        D1
           A3           0.14123
           D1           0.00000   0.00230
 ITU=  1  0
 Use linear search instead of GDIIS.
     Eigenvalues ---    0.00230   0.13011   0.16000   0.32283   0.33327
     Eigenvalues ---    1.03044
 RFO step:  Lambda=-2.52302631D-05 EMin= 2.30000000D-03
 Quartic linear search produced a step of  0.17050.
 Iteration  1 RMS(Cart)=  0.00583134 RMS(Int)=  0.00003095
 Iteration  2 RMS(Cart)=  0.00003082 RMS(Int)=  0.00000000
 Iteration  3 RMS(Cart)=  0.00000000 RMS(Int)=  0.00000000
 ClnCor:  largest displacement from symmetrization is 6.56D-11 for atom     1.
 Variable       Old X    -DE/DX   Delta X   Delta X   Delta X     New X
                                 (Linear)    (Quad)   (Total)
    R1        2.28457  -0.00307   0.00027  -0.00381  -0.00353   2.28103
    R2        2.09506   0.00068  -0.00140   0.00369   0.00229   2.09735
    R3        2.09506   0.00068  -0.00140   0.00369   0.00229   2.09735
    A1        2.12817   0.00092   0.00576   0.00157   0.00733   2.13550
    A2        2.12817   0.00092   0.00576   0.00157   0.00733   2.13550
    A3        2.02684  -0.00184  -0.01152  -0.00313  -0.01465   2.01218
    D1        3.14159   0.00000   0.00000   0.00000   0.00000   3.14159
         Item               Value     Threshold  Converged?
 Maximum Force            0.003075     0.000450     NO 
 RMS     Force            0.001486     0.000300     NO 
 Maximum Displacement     0.007995     0.001800     NO 
 RMS     Displacement     0.005844     0.001200     NO 
 Predicted change in Energy=-2.758214D-05
 GradGradGradGradGradGradGradGradGradGradGradGradGradGradGradGradGradGrad

                          Input orientation:                          
 ---------------------------------------------------------------------
 Center     Atomic      Atomic             Coordinates (Angstroms)
 Number     Number       Type             X           Y           Z
 ---------------------------------------------------------------------
      1          6           0       -0.004810    0.000000    0.000000
      2          8           0        1.202261    0.000000    0.000000
      3          1           0       -0.598775   -0.937559    0.000000
      4          1           0       -0.598775    0.937559    0.000000
 ---------------------------------------------------------------------
                    Distance matrix (angstroms):
                    1          2          3          4
     1  C    0.000000
     2  O    1.207071   0.000000
     3  H    1.109870   2.030455   0.000000
     4  H    1.109870   2.030455   1.875118   0.000000
 Stoichiometry    CH2O
 Framework group  C2V[C2(CO),SGV(H2)]
 Deg. of freedom     3
 Full point group                 C2V     NOp   4
 Largest Abelian subgroup         C2V     NOp   4
 Largest concise Abelian subgroup C2      NOp   2
                         Standard orientation:                         
 ---------------------------------------------------------------------
 Center     Atomic      Atomic             Coordinates (Angstroms)
 Number     Number       Type             X           Y           Z
 ---------------------------------------------------------------------
      1          6           0        0.000000    0.000000   -0.529290
      2          8           0        0.000000    0.000000    0.677781
      3          1           0        0.000000    0.937559   -1.123255
      4          1           0        0.000000   -0.937559   -1.123255
 ---------------------------------------------------------------------
 Rotational constants (GHZ):    285.2362172     38.6146536     34.0104002
 Standard basis: 6-31G(d) (6D, 7F)
 There are    18 symmetry adapted cartesian basis functions of A1  symmetry.
 There are     2 symmetry adapted cartesian basis functions of A2  symmetry.
 There are     6 symmetry adapted cartesian basis functions of B1  symmetry.
 There are     8 symmetry adapted cartesian basis functions of B2  symmetry.
 There are    18 symmetry adapted basis functions of A1  symmetry.
 There are     2 symmetry adapted basis functions of A2  symmetry.
 There are     6 symmetry adapted basis functions of B1  symmetry.
 There are     8 symmetry adapted basis functions of B2  symmetry.
    34 basis functions,    64 primitive gaussians,    34 cartesian basis functions
     8 alpha electrons        8 beta electrons
       nuclear repulsion energy        31.2167216737 Hartrees.
 NAtoms=    4 NActive=    4 NUniq=    3 SFac= 1.78D+00 NAtFMM=   60 NAOKFM=F Big=F
 Integral buffers will be    131072 words long.
 Raffenetti 2 integral format.
 Two-electron integral symmetry is turned on.
 One-electron integrals computed using PRISM.
 NBasis=    34 RedAO= T EigKep=  1.81D-02  NBF=    18     2     6     8
 NBsUse=    34 1.00D-06 EigRej= -1.00D+00 NBFU=    18     2     6     8
 Initial guess from the checkpoint file:  "mea.chk"
 B after Tr=     0.000000    0.000000    0.000000
         Rot=    1.000000    0.000000    0.000000    0.000000 Ang=   0.00 deg.
 Initial guess orbital symmetries:
       Occupied  (A1) (A1) (A1) (A1) (B2) (A1) (B1) (B2)
       Virtual   (A1) (A1) (A1) (A1) (A1) (A1) (A1) (A1) (A1) (A1)
                 (A1) (A1) (A1) (A2) (A2) (B1) (B1) (B1) (B1) (B1)
                 (B2) (B2) (B2) (B2) (B2) (B2)
 Keep R1 ints in memory in symmetry-blocked form, NReq=1062354.
 Requested convergence on RMS density matrix=1.00D-08 within 128 cycles.
 Requested convergence on MAX density matrix=1.00D-06.
 Requested convergence on             energy=1.00D-06.
 No special actions if energy rises.
 SCF Done:  E(RB3LYP) =  -114.500471779     A.U. after    8 cycles
            NFock=  8  Conv=0.71D-09     -V/T= 2.0090
 Calling FoFJK, ICntrl=      2127 FMM=F ISym2X=1 I1Cent= 0 IOpClX= 0 NMat=1 NMatS=1 NMatT=0.
 ***** Axes restored to original set *****
 -------------------------------------------------------------------
 Center     Atomic                   Forces (Hartrees/Bohr)
 Number     Number              X              Y              Z
 -------------------------------------------------------------------
      1        6           0.001254521    0.000000000    0.000000000
      2        8          -0.000888215    0.000000000    0.000000000
      3        1          -0.000183153   -0.000221657    0.000000000
      4        1          -0.000183153    0.000221657    0.000000000
 -------------------------------------------------------------------
 Cartesian Forces:  Max     0.001254521 RMS     0.000458994

 GradGradGradGradGradGradGradGradGradGradGradGradGradGradGradGradGradGrad
 Berny optimization.
 Using GEDIIS/GDIIS optimizer.
 FormGI is forming the generalized inverse of G from B-inverse, IUseBI=4.
 Internal  Forces:  Max     0.000888215 RMS     0.000369458
 Search for a local minimum.
 Step number   3 out of a maximum of   20
 All quantities printed in internal units (Hartrees-Bohrs-Radians)
 Mixed Optimization -- En-DIIS/RFO-DIIS
 Update second derivatives using D2CorX and points    1    2    3
 DE= -3.00D-05 DEPred=-2.76D-05 R= 1.09D+00
 TightC=F SS=  1.41D+00  RLast= 1.86D-02 DXNew= 5.0454D-01 5.5728D-02
 Trust test= 1.09D+00 RLast= 1.86D-02 DXMaxT set to 3.00D-01
 The second derivative matrix:
                          R1        R2        R3        A1        A2
           R1           0.96339
           R2           0.00431   0.32442
           R3           0.00431   0.00159   0.32442
           A1           0.02727  -0.00774  -0.00774   0.15670
           A2           0.02727  -0.00774  -0.00774  -0.00330   0.15670
           A3          -0.05454   0.01547   0.01547   0.00661   0.00661
           D1           0.00000   0.00000   0.00000   0.00000   0.00000
                          A3        D1
           A3           0.14679
           D1           0.00000   0.00230
 ITU=  1  1  0
 Use linear search instead of GDIIS.
     Eigenvalues ---    0.00230   0.13100   0.16000   0.32283   0.32979
     Eigenvalues ---    0.96880
 RFO step:  Lambda=-8.88662062D-07 EMin= 2.30000000D-03
 Quartic linear search produced a step of  0.11303.
 Iteration  1 RMS(Cart)=  0.00044468 RMS(Int)=  0.00000024
 Iteration  2 RMS(Cart)=  0.00000026 RMS(Int)=  0.00000000
 ClnCor:  largest displacement from symmetrization is 6.68D-11 for atom     1.
 Variable       Old X    -DE/DX   Delta X   Delta X   Delta X     New X
                                 (Linear)    (Quad)   (Total)
    R1        2.28103  -0.00089  -0.00040  -0.00061  -0.00101   2.28002
    R2        2.09735   0.00029   0.00026   0.00070   0.00096   2.09831
    R3        2.09735   0.00029   0.00026   0.00070   0.00096   2.09831
    A1        2.13550   0.00003   0.00083  -0.00035   0.00048   2.13598
    A2        2.13550   0.00003   0.00083  -0.00035   0.00048   2.13598
    A3        2.01218  -0.00005  -0.00166   0.00070  -0.00095   2.01123
    D1        3.14159   0.00000   0.00000   0.00000   0.00000   3.14159
         Item               Value     Threshold  Converged?
 Maximum Force            0.000888     0.000450     NO 
 RMS     Force            0.000369     0.000300     NO 
 Maximum Displacement     0.000932     0.001800     YES
 RMS     Displacement     0.000445     0.001200     YES
 Predicted change in Energy=-7.592154D-07
 GradGradGradGradGradGradGradGradGradGradGradGradGradGradGradGradGradGrad

                          Input orientation:                          
 ---------------------------------------------------------------------
 Center     Atomic      Atomic             Coordinates (Angstroms)
 Number     Number       Type             X           Y           Z
 ---------------------------------------------------------------------
      1          6           0       -0.004317    0.000000    0.000000
      2          8           0        1.202219    0.000000    0.000000
      3          1           0       -0.599001   -0.937703    0.000000
      4          1           0       -0.599001    0.937703    0.000000
 ---------------------------------------------------------------------
                    Distance matrix (angstroms):
                    1          2          3          4
     1  C    0.000000
     2  O    1.206536   0.000000
     3  H    1.110376   2.030684   0.000000
     4  H    1.110376   2.030684   1.875405   0.000000
 Stoichiometry    CH2O
 Framework group  C2V[C2(CO),SGV(H2)]
 Deg. of freedom     3
 Full point group                 C2V     NOp   4
 Largest Abelian subgroup         C2V     NOp   4
 Largest concise Abelian subgroup C2      NOp   2
                         Standard orientation:                         
 ---------------------------------------------------------------------
 Center     Atomic      Atomic             Coordinates (Angstroms)
 Number     Number       Type             X           Y           Z
 ---------------------------------------------------------------------
      1          6           0        0.000000    0.000000   -0.528933
      2          8           0        0.000000    0.000000    0.677603
      3          1           0        0.000000    0.937703   -1.123616
      4          1           0        0.000000   -0.937703   -1.123616
 ---------------------------------------------------------------------
 Rotational constants (GHZ):    285.1489935     38.6349140     34.0248745
 Standard basis: 6-31G(d) (6D, 7F)
 There are    18 symmetry adapted cartesian basis functions of A1  symmetry.
 There are     2 symmetry adapted cartesian basis functions of A2  symmetry.
 There are     6 symmetry adapted cartesian basis functions of B1  symmetry.
 There are     8 symmetry adapted cartesian basis functions of B2  symmetry.
 There are    18 symmetry adapted basis functions of A1  symmetry.
 There are     2 symmetry adapted basis functions of A2  symmetry.
 There are     6 symmetry adapted basis functions of B1  symmetry.
 There are     8 symmetry adapted basis functions of B2  symmetry.
    34 basis functions,    64 primitive gaussians,    34 cartesian basis functions
     8 alpha electrons        8 beta electrons
       nuclear repulsion energy        31.2229361886 Hartrees.
 NAtoms=    4 NActive=    4 NUniq=    3 SFac= 1.78D+00 NAtFMM=   60 NAOKFM=F Big=F
 Integral buffers will be    131072 words long.
 Raffenetti 2 integral format.
 Two-electron integral symmetry is turned on.
 One-electron integrals computed using PRISM.
 NBasis=    34 RedAO= T EigKep=  1.81D-02  NBF=    18     2     6     8
 NBsUse=    34 1.00D-06 EigRej= -1.00D+00 NBFU=    18     2     6     8
 Initial guess from the checkpoint file:  "mea.chk"
 B after Tr=     0.000000    0.000000    0.000000
         Rot=    1.000000    0.000000    0.000000    0.000000 Ang=   0.00 deg.
 Initial guess orbital symmetries:
       Occupied  (A1) (A1) (A1) (A1) (B2) (A1) (B1) (B2)
       Virtual   (A1) (A1) (A1) (A1) (A1) (A1) (A1) (A1) (A1) (A1)
                 (A1) (A1) (A1) (A2) (A2) (B1) (B1) (B1) (B1) (B1)
                 (B2) (B2) (B2) (B2) (B2) (B2)
 Keep R1 ints in memory in symmetry-blocked form, NReq=1062354.
 Requested convergence on RMS density matrix=1.00D-08 within 128 cycles.
 Requested convergence on MAX density matrix=1.00D-06.
 Requested convergence on             energy=1.00D-06.
 No special actions if energy rises.
 SCF Done:  E(RB3LYP) =  -114.500472606     A.U. after    7 cycles
            NFock=  7  Conv=0.25D-08     -V/T= 2.0090
 Calling FoFJK, ICntrl=      2127 FMM=F ISym2X=1 I1Cent= 0 IOpClX= 0 NMat=1 NMatS=1 NMatT=0.
 ***** Axes restored to original set *****
 -------------------------------------------------------------------
 Center     Atomic                   Forces (Hartrees/Bohr)
 Number     Number              X              Y              Z
 -------------------------------------------------------------------
      1        6           0.000111766    0.000000000    0.000000000
      2        8          -0.000102205    0.000000000    0.000000000
      3        1          -0.000004781   -0.000039497    0.000000000
      4        1          -0.000004781    0.000039497    0.000000000
 -------------------------------------------------------------------
 Cartesian Forces:  Max     0.000111766 RMS     0.000046640

 GradGradGradGradGradGradGradGradGradGradGradGradGradGradGradGradGradGrad
 Berny optimization.
 Using GEDIIS/GDIIS optimizer.
 FormGI is forming the generalized inverse of G from B-inverse, IUseBI=4.
 Internal  Forces:  Max     0.000102205 RMS     0.000044538
 Search for a local minimum.
 Step number   4 out of a maximum of   20
 All quantities printed in internal units (Hartrees-Bohrs-Radians)
 Mixed Optimization -- En-DIIS/RFO-DIIS
 Swapping is turned off.
 Update second derivatives using D2CorX and points    1    2    3    4
 DE= -8.27D-07 DEPred=-7.59D-07 R= 1.09D+00
 Trust test= 1.09D+00 RLast= 2.05D-03 DXMaxT set to 3.00D-01
 The second derivative matrix:
                          R1        R2        R3        A1        A2
           R1           0.88956
           R2           0.03015   0.31531
           R3           0.03015  -0.00752   0.31531
           A1           0.01953  -0.00500  -0.00500   0.15655
           A2           0.01953  -0.00500  -0.00500  -0.00345   0.15655
           A3          -0.03907   0.01000   0.01000   0.00690   0.00690
           D1           0.00000   0.00000   0.00000   0.00000   0.00000
                          A3        D1
           A3           0.14620
           D1           0.00000   0.00230
 ITU=  0  1  1  0
     Eigenvalues ---    0.00230   0.13394   0.16000   0.30719   0.32283
     Eigenvalues ---    0.89552
 En-DIIS/RFO-DIIS IScMMF=        0 using points:     4    3
 RFO step:  Lambda=-1.77706139D-08.
 DidBck=F Rises=F RFO-DIIS coefs:    1.09993   -0.09993
 Iteration  1 RMS(Cart)=  0.00010394 RMS(Int)=  0.00000000
 Iteration  2 RMS(Cart)=  0.00000000 RMS(Int)=  0.00000000
 ClnCor:  largest displacement from symmetrization is 2.20D-13 for atom     1.
 Variable       Old X    -DE/DX   Delta X   Delta X   Delta X     New X
                                 (Linear)    (Quad)   (Total)
    R1        2.28002  -0.00010  -0.00010  -0.00001  -0.00012   2.27991
    R2        2.09831   0.00004   0.00010   0.00003   0.00012   2.09843
    R3        2.09831   0.00004   0.00010   0.00003   0.00012   2.09843
    A1        2.13598  -0.00001   0.00005  -0.00011  -0.00006   2.13592
    A2        2.13598  -0.00001   0.00005  -0.00011  -0.00006   2.13592
    A3        2.01123   0.00002  -0.00010   0.00022   0.00012   2.01135
    D1        3.14159   0.00000   0.00000   0.00000   0.00000   3.14159
         Item               Value     Threshold  Converged?
 Maximum Force            0.000102     0.000450     YES
 RMS     Force            0.000045     0.000300     YES
 Maximum Displacement     0.000172     0.001800     YES
 RMS     Displacement     0.000104     0.001200     YES
 Predicted change in Energy=-1.245770D-08
 Optimization completed.
    -- Stationary point found.
                           ----------------------------
                           !   Optimized Parameters   !
                           ! (Angstroms and Degrees)  !
 --------------------------                            --------------------------
 ! Name  Definition              Value          Derivative Info.                !
 --------------------------------------------------------------------------------
 ! R1    R(1,2)                  1.2065         -DE/DX =   -0.0001              !
 ! R2    R(1,3)                  1.1104         -DE/DX =    0.0                 !
 ! R3    R(1,4)                  1.1104         -DE/DX =    0.0                 !
 ! A1    A(2,1,3)              122.3825         -DE/DX =    0.0                 !
 ! A2    A(2,1,4)              122.3825         -DE/DX =    0.0                 !
 ! A3    A(3,1,4)              115.2349         -DE/DX =    0.0                 !
 ! D1    D(2,1,4,3)            180.0            -DE/DX =    0.0                 !
 --------------------------------------------------------------------------------
 GradGradGradGradGradGradGradGradGradGradGradGradGradGradGradGradGradGrad

                          Input orientation:                          
 ---------------------------------------------------------------------
 Center     Atomic      Atomic             Coordinates (Angstroms)
 Number     Number       Type             X           Y           Z
 ---------------------------------------------------------------------
      1          6           0       -0.004317    0.000000    0.000000
      2          8           0        1.202219    0.000000    0.000000
      3          1           0       -0.599001   -0.937703    0.000000
      4          1           0       -0.599001    0.937703    0.000000
 ---------------------------------------------------------------------
                    Distance matrix (angstroms):
                    1          2          3          4
     1  C    0.000000
     2  O    1.206536   0.000000
     3  H    1.110376   2.030684   0.000000
     4  H    1.110376   2.030684   1.875405   0.000000
 Stoichiometry    CH2O
 Framework group  C2V[C2(CO),SGV(H2)]
 Deg. of freedom     3
 Full point group                 C2V     NOp   4
 Largest Abelian subgroup         C2V     NOp   4
 Largest concise Abelian subgroup C2      NOp   2
                         Standard orientation:                         
 ---------------------------------------------------------------------
 Center     Atomic      Atomic             Coordinates (Angstroms)
 Number     Number       Type             X           Y           Z
 ---------------------------------------------------------------------
      1          6           0        0.000000    0.000000   -0.528933
      2          8           0        0.000000    0.000000    0.677603
      3          1           0        0.000000    0.937703   -1.123616
      4          1           0        0.000000   -0.937703   -1.123616
 ---------------------------------------------------------------------
 Rotational constants (GHZ):    285.1489935     38.6349140     34.0248745

 **********************************************************************

            Population analysis using the SCF density.

 **********************************************************************

 Orbital symmetries:
       Occupied  (A1) (A1) (A1) (A1) (B2) (A1) (B1) (B2)
       Virtual   (B1) (A1) (B2) (A1) (B1) (A1) (B2) (A1) (B2) (A1)
                 (A1) (B1) (B2) (A1) (A2) (B1) (A1) (B2) (A2) (A1)
                 (A1) (B1) (B2) (A1) (A1) (A1)
 The electronic state is 1-A1.
 Alpha  occ. eigenvalues --  -19.16976 -10.28907  -1.06083  -0.63758  -0.49532
 Alpha  occ. eigenvalues --   -0.44955  -0.39918  -0.26850
 Alpha virt. eigenvalues --   -0.04213   0.10127   0.18204   0.21874   0.50658
 Alpha virt. eigenvalues --    0.62357   0.62674   0.69397   0.81390   0.83716
 Alpha virt. eigenvalues --    0.89058   0.96009   1.05914   1.37728   1.50577
 Alpha virt. eigenvalues --    1.51004   1.68173   1.84997   1.93138   2.12619
 Alpha virt. eigenvalues --    2.27904   2.54101   2.65693   2.91073   3.68301
 Alpha virt. eigenvalues --    4.05556
          Condensed to atoms (all electrons):
               1          2          3          4
     1  C    4.699967   0.557377   0.331107   0.331107
     2  O    0.557377   7.875550  -0.055012  -0.055012
     3  H    0.331107  -0.055012   0.697689  -0.095015
     4  H    0.331107  -0.055012  -0.095015   0.697689
 Mulliken charges:
               1
     1  C    0.080442
     2  O   -0.322904
     3  H    0.121231
     4  H    0.121231
 Sum of Mulliken charges =   0.00000
 Mulliken charges with hydrogens summed into heavy atoms:
               1
     1  C    0.322904
     2  O   -0.322904
 Electronic spatial extent (au):  <R**2>=             60.3116
 Charge=              0.0000 electrons
 Dipole moment (field-independent basis, Debye):
    X=              0.0000    Y=              0.0000    Z=             -2.1867  Tot=              2.1867
 Quadrupole moment (field-independent basis, Debye-Ang):
   XX=            -11.4047   YY=            -11.5085   ZZ=            -11.9273
   XY=              0.0000   XZ=              0.0000   YZ=              0.0000
 Traceless Quadrupole moment (field-independent basis, Debye-Ang):
   XX=              0.2088   YY=              0.1050   ZZ=             -0.3138
   XY=              0.0000   XZ=              0.0000   YZ=              0.0000
 Octapole moment (field-independent basis, Debye-Ang**2):
  XXX=              0.0000  YYY=              0.0000  ZZZ=              1.2457  XYY=              0.0000
  XXY=              0.0000  XXZ=              0.9138  XZZ=              0.0000  YZZ=              0.0000
  YYZ=              0.0675  XYZ=              0.0000
 Hexadecapole moment (field-independent basis, Debye-Ang**3):
 XXXX=             -9.1914 YYYY=            -17.9909 ZZZZ=            -44.4005 XXXY=              0.0000
 XXXZ=              0.0000 YYYX=              0.0000 YYYZ=              0.0000 ZZZX=              0.0000
 ZZZY=              0.0000 XXYY=             -4.7341 XXZZ=             -8.9022 YYZZ=            -10.1689
 XXYZ=              0.0000 YYXZ=              0.0000 ZZXY=              0.0000
 N-N= 3.122293618861D+01 E-N=-3.308477713082D+02  KE= 1.134847117530D+02
 Symmetry A1   KE= 1.031337969512D+02
 Symmetry A2   KE= 6.120679880625D-35
 Symmetry B1   KE= 3.635281691021D+00
 Symmetry B2   KE= 6.715633110803D+00
 1|1|UNPC-DYNABOOK2|FOpt|RB3LYP|6-31G(d)|C1H2O1|SHIGE|18-Apr-2022|0||# 
 B3LYP/6-31G(d) opt freq=Raman||formaldehyde||0,1|C,-0.0043174551,0.,0.
 |O,1.2022186993,0.,0.|H,-0.5990006221,-0.9377025718,0.|H,-0.5990006221
 ,0.9377025718,0.||Version=EM64W-G09RevD.01|State=1-A1|HF=-114.5004726|
 RMSD=2.523e-009|RMSF=4.664e-005|Dipole=-0.8603213,0.,0.|Quadrupole=-0.
 2333097,0.0780839,0.1552258,0.,0.,0.|PG=C02V [C2(C1O1),SGV(H2)]||@


 Cherishing children is the mark of a civilized society.
 -- Joan Ganz Cooney
 Job cpu time:       0 days  0 hours  0 minutes 13.0 seconds.
 File lengths (MBytes):  RWF=      5 Int=      0 D2E=      0 Chk=      5 Scr=      1
 Normal termination of Gaussian 09 at Mon Apr 18 08:11:09 2022.
 Link1:  Proceeding to internal job step number  2.
 --------------------------------------------------------------------
 #N Geom=AllCheck Guess=TCheck SCRF=Check GenChk RB3LYP/6-31G(d) Freq
 --------------------------------------------------------------------
 1/10=4,29=7,30=1,38=1,40=1/1,3;
 2/12=2,40=1/2;
 3/5=1,6=6,7=1,11=2,14=-4,16=1,25=1,30=1,70=2,71=2,74=-5,116=1,140=1/1,2,3;
 4/5=101/1;
 5/5=2,98=1/2;
 8/6=4,10=90,11=11/1;
 10/13=10,15=4/2;
 11/6=3,8=1,9=11,15=111,16=1/1,2,10;
 10/6=1/2;
 6/7=2,8=2,9=2,10=2,18=1,28=1/1;
 7/8=1,10=1,25=1/1,2,3,16;
 1/10=4,30=1/3;
 99//99;
 Structure from the checkpoint file:  "mea.chk"
 ------------
 formaldehyde
 ------------
 Charge =  0 Multiplicity = 1
 Redundant internal coordinates found in file.
 C,0,-0.0043174551,0.,0.
 O,0,1.2022186993,0.,0.
 H,0,-0.5990006221,-0.9377025718,0.
 H,0,-0.5990006221,0.9377025718,0.
 Recover connectivity data from disk.

 GradGradGradGradGradGradGradGradGradGradGradGradGradGradGradGradGradGrad
 Berny optimization.
 Initialization pass.
                           ----------------------------
                           !    Initial Parameters    !
                           ! (Angstroms and Degrees)  !
 --------------------------                            --------------------------
 ! Name  Definition              Value          Derivative Info.                !
 --------------------------------------------------------------------------------
 ! R1    R(1,2)                  1.2065         calculate D2E/DX2 analytically  !
 ! R2    R(1,3)                  1.1104         calculate D2E/DX2 analytically  !
 ! R3    R(1,4)                  1.1104         calculate D2E/DX2 analytically  !
 ! A1    A(2,1,3)              122.3825         calculate D2E/DX2 analytically  !
 ! A2    A(2,1,4)              122.3825         calculate D2E/DX2 analytically  !
 ! A3    A(3,1,4)              115.2349         calculate D2E/DX2 analytically  !
 ! D1    D(2,1,4,3)            180.0            calculate D2E/DX2 analytically  !
 --------------------------------------------------------------------------------
 Trust Radius=3.00D-01 FncErr=1.00D-07 GrdErr=1.00D-07
 Number of steps in this run=      2 maximum allowed number of steps=      2.
 GradGradGradGradGradGradGradGradGradGradGradGradGradGradGradGradGradGrad

                          Input orientation:                          
 ---------------------------------------------------------------------
 Center     Atomic      Atomic             Coordinates (Angstroms)
 Number     Number       Type             X           Y           Z
 ---------------------------------------------------------------------
      1          6           0       -0.004317    0.000000    0.000000
      2          8           0        1.202219    0.000000    0.000000
      3          1           0       -0.599001   -0.937703    0.000000
      4          1           0       -0.599001    0.937703    0.000000
 ---------------------------------------------------------------------
                    Distance matrix (angstroms):
                    1          2          3          4
     1  C    0.000000
     2  O    1.206536   0.000000
     3  H    1.110376   2.030684   0.000000
     4  H    1.110376   2.030684   1.875405   0.000000
 Stoichiometry    CH2O
 Framework group  C2V[C2(CO),SGV(H2)]
 Deg. of freedom     3
 Full point group                 C2V     NOp   4
 Largest Abelian subgroup         C2V     NOp   4
 Largest concise Abelian subgroup C2      NOp   2
                         Standard orientation:                         
 ---------------------------------------------------------------------
 Center     Atomic      Atomic             Coordinates (Angstroms)
 Number     Number       Type             X           Y           Z
 ---------------------------------------------------------------------
      1          6           0        0.000000    0.000000   -0.528933
      2          8           0        0.000000    0.000000    0.677603
      3          1           0        0.000000    0.937703   -1.123616
      4          1           0        0.000000   -0.937703   -1.123616
 ---------------------------------------------------------------------
 Rotational constants (GHZ):    285.1489935     38.6349140     34.0248745
 Standard basis: 6-31G(d) (6D, 7F)
 There are    18 symmetry adapted cartesian basis functions of A1  symmetry.
 There are     2 symmetry adapted cartesian basis functions of A2  symmetry.
 There are     6 symmetry adapted cartesian basis functions of B1  symmetry.
 There are     8 symmetry adapted cartesian basis functions of B2  symmetry.
 There are    18 symmetry adapted basis functions of A1  symmetry.
 There are     2 symmetry adapted basis functions of A2  symmetry.
 There are     6 symmetry adapted basis functions of B1  symmetry.
 There are     8 symmetry adapted basis functions of B2  symmetry.
    34 basis functions,    64 primitive gaussians,    34 cartesian basis functions
     8 alpha electrons        8 beta electrons
       nuclear repulsion energy        31.2229361886 Hartrees.
 NAtoms=    4 NActive=    4 NUniq=    3 SFac= 1.78D+00 NAtFMM=   60 NAOKFM=F Big=F
 Integral buffers will be    131072 words long.
 Raffenetti 2 integral format.
 Two-electron integral symmetry is turned on.
 One-electron integrals computed using PRISM.
 NBasis=    34 RedAO= T EigKep=  1.81D-02  NBF=    18     2     6     8
 NBsUse=    34 1.00D-06 EigRej= -1.00D+00 NBFU=    18     2     6     8
 Initial guess from the checkpoint file:  "mea.chk"
 B after Tr=     0.000000    0.000000    0.000000
         Rot=    1.000000    0.000000    0.000000    0.000000 Ang=   0.00 deg.
 Initial guess orbital symmetries:
       Occupied  (A1) (A1) (A1) (A1) (B2) (A1) (B1) (B2)
       Virtual   (B1) (A1) (B2) (A1) (B1) (A1) (B2) (A1) (B2) (A1)
                 (A1) (B1) (B2) (A1) (A2) (B1) (A1) (B2) (A2) (A1)
                 (A1) (B1) (B2) (A1) (A1) (A1)
 Keep R1 ints in memory in symmetry-blocked form, NReq=1062354.
 Requested convergence on RMS density matrix=1.00D-08 within 128 cycles.
 Requested convergence on MAX density matrix=1.00D-06.
 Requested convergence on             energy=1.00D-06.
 No special actions if energy rises.
 SCF Done:  E(RB3LYP) =  -114.500472606     A.U. after    1 cycles
            NFock=  1  Conv=0.18D-08     -V/T= 2.0090
 DoSCS=F DFT=T ScalE2(SS,OS)=  1.000000  1.000000
 Range of M.O.s used for correlation:     1    34
 NBasis=    34 NAE=     8 NBE=     8 NFC=     0 NFV=     0
 NROrb=     34 NOA=     8 NOB=     8 NVA=    26 NVB=    26
          Differentiating once with respect to electric field.
                with respect to dipole field.
          Electric field/nuclear overlap derivatives assumed to be zero.
 Keep R1 ints in memory in symmetry-blocked form, NReq=1039537.
          There are     3 degrees of freedom in the 1st order CPHF.  IDoFFX=0 NUNeed=     3.
      3 vectors produced by pass  0 Test12= 6.93D-15 3.33D-08 XBig12= 1.70D+01 3.15D+00.
 AX will form     3 AO Fock derivatives at one time.
      3 vectors produced by pass  1 Test12= 6.93D-15 3.33D-08 XBig12= 8.82D+00 1.15D+00.
      3 vectors produced by pass  2 Test12= 6.93D-15 3.33D-08 XBig12= 3.26D-01 2.68D-01.
      3 vectors produced by pass  3 Test12= 6.93D-15 3.33D-08 XBig12= 5.74D-02 9.81D-02.
      3 vectors produced by pass  4 Test12= 6.93D-15 3.33D-08 XBig12= 7.99D-04 1.19D-02.
      3 vectors produced by pass  5 Test12= 6.93D-15 3.33D-08 XBig12= 1.70D-06 5.77D-04.
      3 vectors produced by pass  6 Test12= 6.93D-15 3.33D-08 XBig12= 9.97D-09 3.97D-05.
      1 vectors produced by pass  7 Test12= 6.93D-15 3.33D-08 XBig12= 2.72D-10 5.94D-06.
      1 vectors produced by pass  8 Test12= 6.93D-15 3.33D-08 XBig12= 4.64D-12 1.16D-06.
      1 vectors produced by pass  9 Test12= 6.93D-15 3.33D-08 XBig12= 1.18D-14 2.98D-08.
 InvSVY:  IOpt=1 It=  1 EMax= 1.23D-16
 Solved reduced A of dimension    24 with     3 vectors.
 End of Minotr F.D. properties file   721 does not exist.
 End of Minotr F.D. properties file   722 does not exist.
 End of Minotr F.D. properties file   788 does not exist.
 Symmetrizing basis deriv contribution to polar:
 IMax=3 JMax=2 DiffMx= 0.00D+00
 G2DrvN: will do     5 centers at a time, making    1 passes.
 PxScal for G2LodP:  IOpCl= 0 ISclPx=1 IMOff=     1 NMtTot=     4 NTT=     595 ScalPx= 2.10D+00
 Calling FoFCou, ICntrl=  3107 FMM=F I1Cent=   0 AccDes= 0.00D+00.
 End of G2Drv F.D. properties file   721 does not exist.
 End of G2Drv F.D. properties file   722 does not exist.
 End of G2Drv F.D. properties file   788 does not exist.
          IDoAtm=1111
          Differentiating once with respect to electric field.
                with respect to dipole field.
          Differentiating once with respect to nuclear coordinates.
 Keep R1 ints in memory in symmetry-blocked form, NReq=1039629.
          There are    12 degrees of freedom in the 1st order CPHF.  IDoFFX=4 NUNeed=    12.
 Will reuse    3 saved solutions.
      9 vectors produced by pass  0 Test12= 1.73D-15 8.33D-09 XBig12= 1.76D-01 1.90D-01.
 AX will form     9 AO Fock derivatives at one time.
      9 vectors produced by pass  1 Test12= 1.73D-15 8.33D-09 XBig12= 1.61D-01 2.51D-01.
      9 vectors produced by pass  2 Test12= 1.73D-15 8.33D-09 XBig12= 4.82D-03 2.31D-02.
      9 vectors produced by pass  3 Test12= 1.73D-15 8.33D-09 XBig12= 7.98D-05 4.32D-03.
      9 vectors produced by pass  4 Test12= 1.73D-15 8.33D-09 XBig12= 2.73D-07 1.91D-04.
      7 vectors produced by pass  5 Test12= 1.73D-15 8.33D-09 XBig12= 2.41D-10 4.61D-06.
      1 vectors produced by pass  6 Test12= 1.73D-15 8.33D-09 XBig12= 1.61D-13 1.50D-07.
 InvSVY:  IOpt=1 It=  1 EMax= 8.88D-16
 Solved reduced A of dimension    53 with     9 vectors.
 Isotropic polarizability for W=    0.000000       13.08 Bohr**3.
 End of Minotr F.D. properties file   721 does not exist.
 End of Minotr F.D. properties file   722 does not exist.
 End of Minotr F.D. properties file   788 does not exist.

 **********************************************************************

            Population analysis using the SCF density.

 **********************************************************************

 Orbital symmetries:
       Occupied  (A1) (A1) (A1) (A1) (B2) (A1) (B1) (B2)
       Virtual   (B1) (A1) (B2) (A1) (B1) (A1) (B2) (A1) (B2) (A1)
                 (A1) (B1) (B2) (A1) (A2) (B1) (A1) (B2) (A2) (A1)
                 (A1) (B1) (B2) (A1) (A1) (A1)
 The electronic state is 1-A1.
 Alpha  occ. eigenvalues --  -19.16976 -10.28907  -1.06083  -0.63758  -0.49532
 Alpha  occ. eigenvalues --   -0.44955  -0.39918  -0.26850
 Alpha virt. eigenvalues --   -0.04213   0.10127   0.18204   0.21874   0.50658
 Alpha virt. eigenvalues --    0.62357   0.62674   0.69397   0.81390   0.83716
 Alpha virt. eigenvalues --    0.89058   0.96009   1.05914   1.37728   1.50577
 Alpha virt. eigenvalues --    1.51004   1.68173   1.84997   1.93138   2.12619
 Alpha virt. eigenvalues --    2.27904   2.54101   2.65693   2.91073   3.68301
 Alpha virt. eigenvalues --    4.05556
          Condensed to atoms (all electrons):
               1          2          3          4
     1  C    4.699967   0.557377   0.331107   0.331107
     2  O    0.557377   7.875550  -0.055012  -0.055012
     3  H    0.331107  -0.055012   0.697689  -0.095015
     4  H    0.331107  -0.055012  -0.095015   0.697689
 Mulliken charges:
               1
     1  C    0.080442
     2  O   -0.322904
     3  H    0.121231
     4  H    0.121231
 Sum of Mulliken charges =   0.00000
 Mulliken charges with hydrogens summed into heavy atoms:
               1
     1  C    0.322904
     2  O   -0.322904
 APT charges:
               1
     1  C    0.684675
     2  O   -0.534283
     3  H   -0.075196
     4  H   -0.075196
 Sum of APT charges =   0.00000
 APT charges with hydrogens summed into heavy atoms:
               1
     1  C    0.534283
     2  O   -0.534283
 Electronic spatial extent (au):  <R**2>=             60.3116
 Charge=              0.0000 electrons
 Dipole moment (field-independent basis, Debye):
    X=              0.0000    Y=              0.0000    Z=             -2.1867  Tot=              2.1867
 Quadrupole moment (field-independent basis, Debye-Ang):
   XX=            -11.4047   YY=            -11.5085   ZZ=            -11.9273
   XY=              0.0000   XZ=              0.0000   YZ=              0.0000
 Traceless Quadrupole moment (field-independent basis, Debye-Ang):
   XX=              0.2088   YY=              0.1050   ZZ=             -0.3138
   XY=              0.0000   XZ=              0.0000   YZ=              0.0000
 Octapole moment (field-independent basis, Debye-Ang**2):
  XXX=              0.0000  YYY=              0.0000  ZZZ=              1.2457  XYY=              0.0000
  XXY=              0.0000  XXZ=              0.9138  XZZ=              0.0000  YZZ=              0.0000
  YYZ=              0.0675  XYZ=              0.0000
 Hexadecapole moment (field-independent basis, Debye-Ang**3):
 XXXX=             -9.1914 YYYY=            -17.9909 ZZZZ=            -44.4005 XXXY=              0.0000
 XXXZ=              0.0000 YYYX=              0.0000 YYYZ=              0.0000 ZZZX=              0.0000
 ZZZY=              0.0000 XXYY=             -4.7341 XXZZ=             -8.9022 YYZZ=            -10.1689
 XXYZ=              0.0000 YYXZ=              0.0000 ZZXY=              0.0000
 N-N= 3.122293618861D+01 E-N=-3.308477708206D+02  KE= 1.134847115336D+02
 Symmetry A1   KE= 1.031337968968D+02
 Symmetry A2   KE= 6.120679875713D-35
 Symmetry B1   KE= 3.635281594769D+00
 Symmetry B2   KE= 6.715633041984D+00
  Exact polarizability:   6.762   0.000  14.124   0.000   0.000  18.363
 Approx polarizability:   8.961   0.000  16.844   0.000   0.000  30.944
 Calling FoFJK, ICntrl=    100127 FMM=F ISym2X=1 I1Cent= 0 IOpClX= 0 NMat=1 NMatS=1 NMatT=0.
 Full mass-weighted force constant matrix:
 Low frequencies ---  -28.5883   -8.4489   -7.9418    0.0015    0.0018    0.0022
 Low frequencies --- 1198.2589 1279.4059 1563.0211
 Diagonal vibrational polarizability:
        0.0271531       0.7095900       1.0237422
 Diagonal vibrational hyperpolarizability:
        0.0000000       0.0000000      -4.4449776
 Harmonic frequencies (cm**-1), IR intensities (KM/Mole), Raman scattering
 activities (A**4/AMU), depolarization ratios for plane and unpolarized
 incident light, reduced masses (AMU), force constants (mDyne/A),
 and normal coordinates:
                      1                      2                      3
                     B1                     B2                     A1
 Frequencies --   1198.2589              1279.4059              1563.0211
 Red. masses --      1.3702                 1.3418                 1.1278
 Frc consts  --      1.1592                 1.2941                 1.6234
 IR Inten    --      1.4487                12.5873                 6.4454
 Raman Activ --      2.1140                 7.4750                14.9583
 Depolar (P) --      0.7500                 0.7500                 0.6266
 Depolar (U) --      0.8571                 0.8571                 0.7704
  Atom  AN      X      Y      Z        X      Y      Z        X      Y      Z
     1   6     0.17   0.00   0.00     0.00   0.15   0.00     0.00   0.00  -0.02
     2   8    -0.04   0.00   0.00     0.00  -0.08   0.00     0.00   0.00   0.09
     3   1    -0.70   0.00   0.00     0.00  -0.25  -0.65     0.00  -0.35  -0.61
     4   1    -0.70   0.00   0.00     0.00  -0.25   0.65     0.00   0.35  -0.61
                      4                      5                      6
                     A1                     A1                     B2
 Frequencies --   1849.7146              2917.9940              2969.0131
 Red. masses --      6.5294                 1.0447                 1.1221
 Frc consts  --     13.1624                 5.2409                 5.8277
 IR Inten    --     98.6584                55.9236               164.6475
 Raman Activ --      3.0112               151.9774                75.0795
 Depolar (P) --      0.4064                 0.1717                 0.7500
 Depolar (U) --      0.5780                 0.2931                 0.8571
  Atom  AN      X      Y      Z        X      Y      Z        X      Y      Z
     1   6     0.00   0.00   0.55     0.00   0.00   0.06     0.00   0.10   0.00
     2   8     0.00   0.00  -0.38     0.00   0.00   0.00     0.00   0.00   0.00
     3   1     0.00  -0.46  -0.26     0.00   0.61  -0.35     0.00  -0.60   0.37
     4   1     0.00   0.46  -0.26     0.00  -0.61  -0.35     0.00  -0.60  -0.37

 -------------------
 - Thermochemistry -
 -------------------
 Temperature   298.150 Kelvin.  Pressure   1.00000 Atm.
 Atom     1 has atomic number  6 and mass  12.00000
 Atom     2 has atomic number  8 and mass  15.99491
 Atom     3 has atomic number  1 and mass   1.00783
 Atom     4 has atomic number  1 and mass   1.00783
 Molecular mass:    30.01056 amu.
 Principal axes and moments of inertia in atomic units:
                           1         2         3
     Eigenvalues --     6.32912  46.71270  53.04182
           X            0.00000   0.00000   1.00000
           Y            0.00000   1.00000   0.00000
           Z            1.00000   0.00000   0.00000
 This molecule is an asymmetric top.
 Rotational symmetry number  2.
 Rotational temperatures (Kelvin)     13.68498     1.85418     1.63293
 Rotational constants (GHZ):         285.14899    38.63491    34.02487
 Zero-point vibrational energy      70444.5 (Joules/Mol)
                                   16.83665 (Kcal/Mol)
 Vibrational temperatures:   1724.03  1840.78  2248.84  2661.32  4198.34
          (Kelvin)           4271.74
 
 Zero-point correction=                           0.026831 (Hartree/Particle)
 Thermal correction to Energy=                    0.029697
 Thermal correction to Enthalpy=                  0.030642
 Thermal correction to Gibbs Free Energy=         0.005822
 Sum of electronic and zero-point Energies=           -114.473642
 Sum of electronic and thermal Energies=              -114.470775
 Sum of electronic and thermal Enthalpies=            -114.469831
 Sum of electronic and thermal Free Energies=         -114.494651
 
                     E (Thermal)             CV                S
                      KCal/Mol        Cal/Mol-Kelvin    Cal/Mol-Kelvin
 Total                   18.635              6.408             52.237
 Electronic               0.000              0.000              0.000
 Translational            0.889              2.981             36.130
 Rotational               0.889              2.981             16.024
 Vibrational             16.858              0.446              0.083
                       Q            Log10(Q)             Ln(Q)
 Total Bot       0.209933D-02         -2.677919         -6.166137
 Total V=0       0.460697D+10          9.663415         22.250836
 Vib (Bot)       0.458352D-12        -12.338801        -28.411138
 Vib (V=0)       0.100585D+01          0.002534          0.005835
 Electronic      0.100000D+01          0.000000          0.000000
 Translational   0.646199D+07          6.810366         15.681448
 Rotational      0.708785D+03          2.850515          6.563553
 ***** Axes restored to original set *****
 -------------------------------------------------------------------
 Center     Atomic                   Forces (Hartrees/Bohr)
 Number     Number              X              Y              Z
 -------------------------------------------------------------------
      1        6           0.000111794    0.000000000    0.000000000
      2        8          -0.000102218    0.000000000    0.000000000
      3        1          -0.000004788   -0.000039501    0.000000000
      4        1          -0.000004788    0.000039501    0.000000000
 -------------------------------------------------------------------
 Cartesian Forces:  Max     0.000111794 RMS     0.000046648
 FormGI is forming the generalized inverse of G from B-inverse, IUseBI=4.

 GradGradGradGradGradGradGradGradGradGradGradGradGradGradGradGradGradGrad
 Berny optimization.
 Internal  Forces:  Max     0.000102218 RMS     0.000044543
 Search for a local minimum.
 Step number   1 out of a maximum of    2
 All quantities printed in internal units (Hartrees-Bohrs-Radians)
 Second derivative matrix not updated -- analytic derivatives used.
 The second derivative matrix:
                          R1        R2        R3        A1        A2
           R1           0.90143
           R2           0.03800   0.30746
           R3           0.03800   0.00691   0.30746
           A1           0.01796   0.00068  -0.00985   0.11895
           A2           0.01796  -0.00985   0.00068  -0.07416   0.11895
           A3          -0.03592   0.00917   0.00917  -0.04480  -0.04480
           D1           0.00000   0.00000   0.00000   0.00000   0.00000
                          A3        D1
           A3           0.08959
           D1           0.00000   0.07021
 ITU=  0
     Eigenvalues ---    0.07021   0.12989   0.19209   0.30157   0.31166
     Eigenvalues ---    0.90863
 Angle between quadratic step and forces=  35.06 degrees.
 Linear search not attempted -- first point.
 Iteration  1 RMS(Cart)=  0.00010748 RMS(Int)=  0.00000000
 Iteration  2 RMS(Cart)=  0.00000000 RMS(Int)=  0.00000000
 ClnCor:  largest displacement from symmetrization is 2.19D-12 for atom     1.
 Variable       Old X    -DE/DX   Delta X   Delta X   Delta X     New X
                                 (Linear)    (Quad)   (Total)
    R1        2.28002  -0.00010   0.00000  -0.00012  -0.00012   2.27991
    R2        2.09831   0.00004   0.00000   0.00012   0.00012   2.09843
    R3        2.09831   0.00004   0.00000   0.00012   0.00012   2.09843
    A1        2.13598  -0.00001   0.00000  -0.00007  -0.00007   2.13591
    A2        2.13598  -0.00001   0.00000  -0.00007  -0.00007   2.13591
    A3        2.01123   0.00002   0.00000   0.00013   0.00013   2.01136
    D1        3.14159   0.00000   0.00000   0.00000   0.00000   3.14159
         Item               Value     Threshold  Converged?
 Maximum Force            0.000102     0.000450     YES
 RMS     Force            0.000045     0.000300     YES
 Maximum Displacement     0.000177     0.001800     YES
 RMS     Displacement     0.000107     0.001200     YES
 Predicted change in Energy=-1.266971D-08
 Optimization completed.
    -- Stationary point found.
                           ----------------------------
                           !   Optimized Parameters   !
                           ! (Angstroms and Degrees)  !
 --------------------------                            --------------------------
 ! Name  Definition              Value          Derivative Info.                !
 --------------------------------------------------------------------------------
 ! R1    R(1,2)                  1.2065         -DE/DX =   -0.0001              !
 ! R2    R(1,3)                  1.1104         -DE/DX =    0.0                 !
 ! R3    R(1,4)                  1.1104         -DE/DX =    0.0                 !
 ! A1    A(2,1,3)              122.3825         -DE/DX =    0.0                 !
 ! A2    A(2,1,4)              122.3825         -DE/DX =    0.0                 !
 ! A3    A(3,1,4)              115.2349         -DE/DX =    0.0                 !
 ! D1    D(2,1,4,3)            180.0            -DE/DX =    0.0                 !
 --------------------------------------------------------------------------------
 GradGradGradGradGradGradGradGradGradGradGradGradGradGradGradGradGradGrad

 1|1|UNPC-DYNABOOK2|Freq|RB3LYP|6-31G(d)|C1H2O1|SHIGE|18-Apr-2022|0||#N
  Geom=AllCheck Guess=TCheck SCRF=Check GenChk RB3LYP/6-31G(d) Freq||fo
 rmaldehyde||0,1|C,-0.0043174551,0.,0.|O,1.2022186993,0.,0.|H,-0.599000
 6221,-0.9377025718,0.|H,-0.5990006221,0.9377025718,0.||Version=EM64W-G
 09RevD.01|State=1-A1|HF=-114.5004726|RMSD=1.788e-009|RMSF=4.665e-005|Z
 eroPoint=0.0268309|Thermal=0.0296974|Dipole=-0.8603211,0.,0.|DipoleDer
 iv=1.0007725,0.,0.,0.,0.8702663,0.,0.,0.,0.1829875,-0.8631102,0.,0.,0.
 ,-0.4265378,0.,0.,0.,-0.3131996,-0.0688312,-0.1090051,0.,-0.1138842,-0
 .2218642,0.,0.,0.,0.0651061,-0.0688312,0.1090051,0.,0.1138842,-0.22186
 42,0.,0.,0.,0.0651061|Polar=18.3631589,0.,14.1239644,0.,0.,6.7620607|P
 olarDeriv=-2.2444122,0.,9.5916692,0.,0.,-0.9235454,0.,3.444691,0.,0.,0
 .,0.,0.,0.,0.,-1.3705508,0.,0.,9.0963093,0.,-3.4820411,0.,0.,1.0622943
 ,0.,3.6845757,0.,0.,0.,0.,0.,0.,0.,3.8607068,0.,0.,-3.4259485,-3.43516
 03,-3.054814,0.,0.,-0.0693745,-1.4169695,-3.5646333,-7.4013885,0.,0.,-
 0.4389856,0.,0.,0.,-1.245078,-2.0772061,0.,-3.4259485,3.4351603,-3.054
 814,0.,0.,-0.0693745,1.4169695,-3.5646333,7.4013885,0.,0.,0.4389856,0.
 ,0.,0.,-1.245078,2.0772061,0.|HyperPolar=-34.4370192,0.,-51.9301776,0.
 ,0.,0.,0.,-1.6626224,0.,0.|PG=C02V [C2(C1O1),SGV(H2)]|NImag=0||1.02045
 244,0.,0.58997936,0.,0.,0.17374546,-0.81735358,0.,0.,0.90143223,0.,-0.
 10976665,0.,0.,0.07431655,0.,0.,-0.05736243,0.,0.,0.01892870,-0.101549
 43,-0.08166788,0.,-0.04203932,-0.03656781,0.,0.13280241,-0.07683960,-0
 .24010636,0.,-0.01834055,0.01772505,0.,0.10670792,0.24235365,0.,0.,-0.
 05819151,0.,0.,0.01921686,0.,0.,0.01947174,-0.10154943,0.08166788,0.,-
 0.04203932,0.03656781,0.,0.01078634,-0.01152777,0.,0.13280241,0.076839
 60,-0.24010636,0.,0.01834055,0.01772505,0.,0.01152777,-0.01997235,0.,-
 0.10670792,0.24235365,0.,0.,-0.05819151,0.,0.,0.01921686,0.,0.,0.01950
 291,0.,0.,0.01947174||-0.00011179,0.,0.,0.00010222,0.,0.,0.00000479,0.
 00003950,0.,0.00000479,-0.00003950,0.|||@


 Cherishing children is the mark of a civilized society.
 -- Joan Ganz Cooney
 Job cpu time:       0 days  0 hours  0 minutes  7.0 seconds.
 File lengths (MBytes):  RWF=      5 Int=      0 D2E=      0 Chk=      5 Scr=      1
 Normal termination of Gaussian 09 at Mon Apr 18 08:11:16 2022.
