 Entering Link 1 = C:\data\G09W\l1.exe PID=     14600.
  
 Copyright (c) 1988,1990,1992,1993,1995,1998,2003,2009,2013,
            Gaussian, Inc.  All Rights Reserved.
  
 This is part of the Gaussian(R) 09 program.  It is based on
 the Gaussian(R) 03 system (copyright 2003, Gaussian, Inc.),
 the Gaussian(R) 98 system (copyright 1998, Gaussian, Inc.),
 the Gaussian(R) 94 system (copyright 1995, Gaussian, Inc.),
 the Gaussian 92(TM) system (copyright 1992, Gaussian, Inc.),
 the Gaussian 90(TM) system (copyright 1990, Gaussian, Inc.),
 the Gaussian 88(TM) system (copyright 1988, Gaussian, Inc.),
 the Gaussian 86(TM) system (copyright 1986, Carnegie Mellon
 University), and the Gaussian 82(TM) system (copyright 1983,
 Carnegie Mellon University). Gaussian is a federally registered
 trademark of Gaussian, Inc.
  
 This software contains proprietary and confidential information,
 including trade secrets, belonging to Gaussian, Inc.
  
 This software is provided under written license and may be
 used, copied, transmitted, or stored only in accord with that
 written license.
  
 The following legend is applicable only to US Government
 contracts under FAR:
  
                    RESTRICTED RIGHTS LEGEND
  
 Use, reproduction and disclosure by the US Government is
 subject to restrictions as set forth in subparagraphs (a)
 and (c) of the Commercial Computer Software - Restricted
 Rights clause in FAR 52.227-19.
  
 Gaussian, Inc.
 340 Quinnipiac St., Bldg. 40, Wallingford CT 06492
  
  
 ---------------------------------------------------------------
 Warning -- This program may not be used in any manner that
 competes with the business of Gaussian, Inc. or will provide
 assistance to any competitor of Gaussian, Inc.  The licensee
 of this program is prohibited from giving any competitor of
 Gaussian, Inc. access to this program.  By using this program,
 the user acknowledges that Gaussian, Inc. is engaged in the
 business of creating and licensing software in the field of
 computational chemistry and represents and warrants to the
 licensee that it is not a competitor of Gaussian, Inc. and that
 it will not use this program in any manner prohibited above.
 ---------------------------------------------------------------
  

 Cite this work as:
 Gaussian 09, Revision D.01,
 M. J. Frisch, G. W. Trucks, H. B. Schlegel, G. E. Scuseria, 
 M. A. Robb, J. R. Cheeseman, G. Scalmani, V. Barone, B. Mennucci, 
 G. A. Petersson, H. Nakatsuji, M. Caricato, X. Li, H. P. Hratchian, 
 A. F. Izmaylov, J. Bloino, G. Zheng, J. L. Sonnenberg, M. Hada, 
 M. Ehara, K. Toyota, R. Fukuda, J. Hasegawa, M. Ishida, T. Nakajima, 
 Y. Honda, O. Kitao, H. Nakai, T. Vreven, J. A. Montgomery, Jr., 
 J. E. Peralta, F. Ogliaro, M. Bearpark, J. J. Heyd, E. Brothers, 
 K. N. Kudin, V. N. Staroverov, T. Keith, R. Kobayashi, J. Normand, 
 K. Raghavachari, A. Rendell, J. C. Burant, S. S. Iyengar, J. Tomasi, 
 M. Cossi, N. Rega, J. M. Millam, M. Klene, J. E. Knox, J. B. Cross, 
 V. Bakken, C. Adamo, J. Jaramillo, R. Gomperts, R. E. Stratmann, 
 O. Yazyev, A. J. Austin, R. Cammi, C. Pomelli, J. W. Ochterski, 
 R. L. Martin, K. Morokuma, V. G. Zakrzewski, G. A. Voth, 
 P. Salvador, J. J. Dannenberg, S. Dapprich, A. D. Daniels, 
 O. Farkas, J. B. Foresman, J. V. Ortiz, J. Cioslowski, 
 and D. J. Fox, Gaussian, Inc., Wallingford CT, 2013.
 
 ******************************************
 Gaussian 09:  EM64W-G09RevD.01 13-Apr-2013
                16-Apr-2022 
 ******************************************
 %NProcShared=6
 Will use up to    6 processors via shared memory.
 %mem=12GB
 %Chk=dft.chk
 ----------------------------------
 # B3LYP/6-31+G(d,p) opt freq=Raman
 ----------------------------------
 1/14=-1,18=20,19=15,26=3,38=1/1,3;
 2/9=110,12=2,17=6,18=5,40=1/2;
 3/5=1,6=6,7=111,11=2,16=1,25=1,30=1,71=1,74=-5/1,2,3;
 4//1;
 5/5=2,38=5/2;
 6/7=2,8=2,9=2,10=2,28=1/1;
 7//1,2,3,16;
 1/14=-1,18=20,19=15,26=3/3(2);
 2/9=110/2;
 99//99;
 2/9=110/2;
 3/5=1,6=6,7=111,11=2,16=1,25=1,30=1,71=1,74=-5/1,2,3;
 4/5=5,16=3,69=1/1;
 5/5=2,38=5/2;
 7//1,2,3,16;
 1/14=-1,18=20,19=15,26=3/3(-5);
 2/9=110/2;
 6/7=2,8=2,9=2,10=2,19=2,28=1/1;
 99/9=1/99;
 ---------
 mea_mea_w
 ---------
 Symbolic Z-matrix:
 Charge =  0 Multiplicity = 1
 C                    0     0.2606   -0.0736   -1.5937 
 C                    0     1.2666   -1.1145   -1.1122 
 O                    0     2.4601   -0.5284   -0.8197 
 C                    0     3.4955   -1.3585   -0.3666 
 C                    0     4.7171   -0.4977   -0.0812 
 O                    0     5.7609   -1.3261    0.3697 
 C                    0     6.9356   -0.5975    0.6554 
 O                    0     1.0264   -2.2978   -1.0269 
 C                    0     0.2171    1.2196   -0.7548 
 C                    0     0.0498    1.0112    0.7632 
 C                    0    -0.1015    2.3535    1.4984 
 C                    0     0.5059    0.2371   -3.0794 
 C                    0    -1.0774    0.0405    1.0961 
 O                    0    -2.2896    0.6186    0.8763 
 C                    0    -3.4327   -0.1662    1.0861 
 C                    0    -4.6613    0.6716    0.7644 
 O                    0    -5.8138   -0.0999    1.0003 
 C                    0    -6.9994    0.6082    0.7079 
 O                    0    -0.8925   -1.0922    1.4797 
 H                    0    -0.7468   -0.5553   -1.5207 
 H                    0     3.733    -2.111    -1.1545 
 H                    0     4.4754    0.2554    0.7046 
 H                    0     5.0365    0.0278   -1.0111 
 H                    0     7.7099   -1.3166    1.0046 
 H                    0     7.3072   -0.0892   -0.262 
 H                    0     6.744     0.1427    1.4637 
 H                    0     1.1457    1.8108   -0.9374 
 H                    0    -0.6294    1.8476   -1.1227 
 H                    0     0.9834    0.5371    1.1575 
 H                    0     0.7968    2.9951    1.3479 
 H                    0    -0.9842    2.927     1.1356 
 H                    0    -0.223     2.1975    2.5949 
 H                    0    -0.275     0.9214   -3.483 
 H                    0     0.4868   -0.6924   -3.6936 
 H                    0     1.4959    0.7241   -3.2316 
 H                    0    -3.396    -1.0569    0.4171 
 H                    0    -3.4607   -0.4948    2.1512 
 H                    0    -4.6363    0.9852   -0.3052 
 H                    0    -4.6841    1.5771    1.4144 
 H                    0    -7.0792    1.5109    1.3534 
 H                    0    -7.0244    0.8918   -0.3678 
 H                    0    -7.8618   -0.0621    0.9211 
 H                    0     3.1688   -1.8765    0.5654 
 O                    0    -1.5363   -2.9283   -0.3455 
 H                    0    -0.7209   -3.1514   -0.7593 
 H                    0    -1.2527   -2.6248    0.5 
 
 Add virtual bond connecting atoms H45        and O8         Dist= 3.71D+00.
 Add virtual bond connecting atoms H46        and O19        Dist= 3.50D+00.

 GradGradGradGradGradGradGradGradGradGradGradGradGradGradGradGradGradGrad
 Berny optimization.
 Initialization pass.
                           ----------------------------
                           !    Initial Parameters    !
                           ! (Angstroms and Degrees)  !
 --------------------------                            --------------------------
 ! Name  Definition              Value          Derivative Info.                !
 --------------------------------------------------------------------------------
 ! R1    R(1,2)                  1.5256         estimate D2E/DX2                !
 ! R2    R(1,9)                  1.5421         estimate D2E/DX2                !
 ! R3    R(1,12)                 1.5375         estimate D2E/DX2                !
 ! R4    R(1,20)                 1.119          estimate D2E/DX2                !
 ! R5    R(2,3)                  1.3614         estimate D2E/DX2                !
 ! R6    R(2,8)                  1.2104         estimate D2E/DX2                !
 ! R7    R(3,4)                  1.4023         estimate D2E/DX2                !
 ! R8    R(4,5)                  1.5214         estimate D2E/DX2                !
 ! R9    R(4,21)                 1.1151         estimate D2E/DX2                !
 ! R10   R(4,43)                 1.1152         estimate D2E/DX2                !
 ! R11   R(5,6)                  1.4068         estimate D2E/DX2                !
 ! R12   R(5,22)                 1.1149         estimate D2E/DX2                !
 ! R13   R(5,23)                 1.1148         estimate D2E/DX2                !
 ! R14   R(6,7)                  1.4115         estimate D2E/DX2                !
 ! R15   R(7,24)                 1.1129         estimate D2E/DX2                !
 ! R16   R(7,25)                 1.1127         estimate D2E/DX2                !
 ! R17   R(7,26)                 1.1126         estimate D2E/DX2                !
 ! R18   R(8,45)                 1.963          estimate D2E/DX2                !
 ! R19   R(9,10)                 1.5413         estimate D2E/DX2                !
 ! R20   R(9,27)                 1.1159         estimate D2E/DX2                !
 ! R21   R(9,28)                 1.1164         estimate D2E/DX2                !
 ! R22   R(10,11)                1.5379         estimate D2E/DX2                !
 ! R23   R(10,13)                1.5244         estimate D2E/DX2                !
 ! R24   R(10,29)                1.1189         estimate D2E/DX2                !
 ! R25   R(11,30)                1.1141         estimate D2E/DX2                !
 ! R26   R(11,31)                1.1134         estimate D2E/DX2                !
 ! R27   R(11,32)                1.1142         estimate D2E/DX2                !
 ! R28   R(12,33)                1.114          estimate D2E/DX2                !
 ! R29   R(12,34)                1.1143         estimate D2E/DX2                !
 ! R30   R(12,35)                1.1137         estimate D2E/DX2                !
 ! R31   R(13,14)                1.3609         estimate D2E/DX2                !
 ! R32   R(13,19)                1.2101         estimate D2E/DX2                !
 ! R33   R(14,15)                1.4024         estimate D2E/DX2                !
 ! R34   R(15,16)                1.5215         estimate D2E/DX2                !
 ! R35   R(15,36)                1.1146         estimate D2E/DX2                !
 ! R36   R(15,37)                1.115          estimate D2E/DX2                !
 ! R37   R(16,17)                1.4068         estimate D2E/DX2                !
 ! R38   R(16,38)                1.1149         estimate D2E/DX2                !
 ! R39   R(16,39)                1.1149         estimate D2E/DX2                !
 ! R40   R(17,18)                1.4116         estimate D2E/DX2                !
 ! R41   R(18,40)                1.1126         estimate D2E/DX2                !
 ! R42   R(18,41)                1.1127         estimate D2E/DX2                !
 ! R43   R(18,42)                1.1129         estimate D2E/DX2                !
 ! R44   R(19,46)                1.8543         estimate D2E/DX2                !
 ! R45   R(44,45)                0.9412         estimate D2E/DX2                !
 ! R46   R(44,46)                0.942          estimate D2E/DX2                !
 ! A1    A(2,1,9)              114.777          estimate D2E/DX2                !
 ! A2    A(2,1,12)             109.7339         estimate D2E/DX2                !
 ! A3    A(2,1,20)             106.2215         estimate D2E/DX2                !
 ! A4    A(9,1,12)             111.1434         estimate D2E/DX2                !
 ! A5    A(9,1,20)             107.464          estimate D2E/DX2                !
 ! A6    A(12,1,20)            107.0766         estimate D2E/DX2                !
 ! A7    A(1,2,3)              110.6196         estimate D2E/DX2                !
 ! A8    A(1,2,8)              123.9445         estimate D2E/DX2                !
 ! A9    A(3,2,8)              125.4273         estimate D2E/DX2                !
 ! A10   A(2,3,4)              117.5075         estimate D2E/DX2                !
 ! A11   A(3,4,5)              108.5749         estimate D2E/DX2                !
 ! A12   A(3,4,21)             109.1734         estimate D2E/DX2                !
 ! A13   A(3,4,43)             109.1892         estimate D2E/DX2                !
 ! A14   A(5,4,21)             110.0804         estimate D2E/DX2                !
 ! A15   A(5,4,43)             109.953          estimate D2E/DX2                !
 ! A16   A(21,4,43)            109.8429         estimate D2E/DX2                !
 ! A17   A(4,5,6)              108.8268         estimate D2E/DX2                !
 ! A18   A(4,5,22)             109.8963         estimate D2E/DX2                !
 ! A19   A(4,5,23)             109.8928         estimate D2E/DX2                !
 ! A20   A(6,5,22)             109.433          estimate D2E/DX2                !
 ! A21   A(6,5,23)             109.4108         estimate D2E/DX2                !
 ! A22   A(22,5,23)            109.3655         estimate D2E/DX2                !
 ! A23   A(5,6,7)              112.2347         estimate D2E/DX2                !
 ! A24   A(6,7,24)             107.9985         estimate D2E/DX2                !
 ! A25   A(6,7,25)             110.295          estimate D2E/DX2                !
 ! A26   A(6,7,26)             110.3118         estimate D2E/DX2                !
 ! A27   A(24,7,25)            108.7547         estimate D2E/DX2                !
 ! A28   A(24,7,26)            108.7669         estimate D2E/DX2                !
 ! A29   A(25,7,26)            110.6447         estimate D2E/DX2                !
 ! A30   A(2,8,45)             127.6865         estimate D2E/DX2                !
 ! A31   A(1,9,10)             115.1787         estimate D2E/DX2                !
 ! A32   A(1,9,27)             109.3786         estimate D2E/DX2                !
 ! A33   A(1,9,28)             108.2919         estimate D2E/DX2                !
 ! A34   A(10,9,27)            108.8518         estimate D2E/DX2                !
 ! A35   A(10,9,28)            108.5609         estimate D2E/DX2                !
 ! A36   A(27,9,28)            106.2029         estimate D2E/DX2                !
 ! A37   A(9,10,11)            111.314          estimate D2E/DX2                !
 ! A38   A(9,10,13)            112.4229         estimate D2E/DX2                !
 ! A39   A(9,10,29)            108.2882         estimate D2E/DX2                !
 ! A40   A(11,10,13)           112.25           estimate D2E/DX2                !
 ! A41   A(11,10,29)           106.4667         estimate D2E/DX2                !
 ! A42   A(13,10,29)           105.6777         estimate D2E/DX2                !
 ! A43   A(10,11,30)           111.0225         estimate D2E/DX2                !
 ! A44   A(10,11,31)           111.8262         estimate D2E/DX2                !
 ! A45   A(10,11,32)           111.0379         estimate D2E/DX2                !
 ! A46   A(30,11,31)           107.372          estimate D2E/DX2                !
 ! A47   A(30,11,32)           107.5475         estimate D2E/DX2                !
 ! A48   A(31,11,32)           107.8387         estimate D2E/DX2                !
 ! A49   A(1,12,33)            111.2466         estimate D2E/DX2                !
 ! A50   A(1,12,34)            111.1819         estimate D2E/DX2                !
 ! A51   A(1,12,35)            111.2368         estimate D2E/DX2                !
 ! A52   A(33,12,34)           107.4997         estimate D2E/DX2                !
 ! A53   A(33,12,35)           107.758          estimate D2E/DX2                !
 ! A54   A(34,12,35)           107.7382         estimate D2E/DX2                !
 ! A55   A(10,13,14)           110.6645         estimate D2E/DX2                !
 ! A56   A(10,13,19)           123.5252         estimate D2E/DX2                !
 ! A57   A(14,13,19)           125.7987         estimate D2E/DX2                !
 ! A58   A(13,14,15)           117.6576         estimate D2E/DX2                !
 ! A59   A(14,15,16)           108.568          estimate D2E/DX2                !
 ! A60   A(14,15,36)           109.3044         estimate D2E/DX2                !
 ! A61   A(14,15,37)           109.1663         estimate D2E/DX2                !
 ! A62   A(16,15,36)           109.8603         estimate D2E/DX2                !
 ! A63   A(16,15,37)           110.1199         estimate D2E/DX2                !
 ! A64   A(36,15,37)           109.7969         estimate D2E/DX2                !
 ! A65   A(15,16,17)           108.9111         estimate D2E/DX2                !
 ! A66   A(15,16,38)           109.8543         estimate D2E/DX2                !
 ! A67   A(15,16,39)           109.906          estimate D2E/DX2                !
 ! A68   A(17,16,38)           109.481          estimate D2E/DX2                !
 ! A69   A(17,16,39)           109.3231         estimate D2E/DX2                !
 ! A70   A(38,16,39)           109.3499         estimate D2E/DX2                !
 ! A71   A(16,17,18)           112.225          estimate D2E/DX2                !
 ! A72   A(17,18,40)           110.3075         estimate D2E/DX2                !
 ! A73   A(17,18,41)           110.3021         estimate D2E/DX2                !
 ! A74   A(17,18,42)           108.0017         estimate D2E/DX2                !
 ! A75   A(40,18,41)           110.638          estimate D2E/DX2                !
 ! A76   A(40,18,42)           108.781          estimate D2E/DX2                !
 ! A77   A(41,18,42)           108.7415         estimate D2E/DX2                !
 ! A78   A(13,19,46)           125.2035         estimate D2E/DX2                !
 ! A79   A(45,44,46)           102.1313         estimate D2E/DX2                !
 ! A80   A(8,45,44)            136.7191         estimate D2E/DX2                !
 ! A81   A(19,46,44)           143.0317         estimate D2E/DX2                !
 ! D1    D(9,1,2,3)            -45.0124         estimate D2E/DX2                !
 ! D2    D(9,1,2,8)            136.0043         estimate D2E/DX2                !
 ! D3    D(12,1,2,3)            80.9772         estimate D2E/DX2                !
 ! D4    D(12,1,2,8)           -98.0062         estimate D2E/DX2                !
 ! D5    D(20,1,2,3)          -163.6016         estimate D2E/DX2                !
 ! D6    D(20,1,2,8)            17.415          estimate D2E/DX2                !
 ! D7    D(2,1,9,10)           -51.6506         estimate D2E/DX2                !
 ! D8    D(2,1,9,27)            71.2951         estimate D2E/DX2                !
 ! D9    D(2,1,9,28)          -173.3762         estimate D2E/DX2                !
 ! D10   D(12,1,9,10)         -176.9071         estimate D2E/DX2                !
 ! D11   D(12,1,9,27)          -53.9614         estimate D2E/DX2                !
 ! D12   D(12,1,9,28)           61.3673         estimate D2E/DX2                !
 ! D13   D(20,1,9,10)           66.2383         estimate D2E/DX2                !
 ! D14   D(20,1,9,27)         -170.8161         estimate D2E/DX2                !
 ! D15   D(20,1,9,28)          -55.4874         estimate D2E/DX2                !
 ! D16   D(2,1,12,33)          174.5825         estimate D2E/DX2                !
 ! D17   D(2,1,12,34)           54.8022         estimate D2E/DX2                !
 ! D18   D(2,1,12,35)          -65.2733         estimate D2E/DX2                !
 ! D19   D(9,1,12,33)          -57.3854         estimate D2E/DX2                !
 ! D20   D(9,1,12,34)         -177.1657         estimate D2E/DX2                !
 ! D21   D(9,1,12,35)           62.7588         estimate D2E/DX2                !
 ! D22   D(20,1,12,33)          59.706          estimate D2E/DX2                !
 ! D23   D(20,1,12,34)         -60.0743         estimate D2E/DX2                !
 ! D24   D(20,1,12,35)         179.8502         estimate D2E/DX2                !
 ! D25   D(1,2,3,4)           -179.7591         estimate D2E/DX2                !
 ! D26   D(8,2,3,4)             -0.7942         estimate D2E/DX2                !
 ! D27   D(1,2,8,45)           -26.2864         estimate D2E/DX2                !
 ! D28   D(3,2,8,45)           154.8813         estimate D2E/DX2                !
 ! D29   D(2,3,4,5)           -179.0678         estimate D2E/DX2                !
 ! D30   D(2,3,4,21)            60.9104         estimate D2E/DX2                !
 ! D31   D(2,3,4,43)           -59.1911         estimate D2E/DX2                !
 ! D32   D(3,4,5,6)           -179.8081         estimate D2E/DX2                !
 ! D33   D(3,4,5,22)            60.3756         estimate D2E/DX2                !
 ! D34   D(3,4,5,23)           -60.021          estimate D2E/DX2                !
 ! D35   D(21,4,5,6)           -60.3526         estimate D2E/DX2                !
 ! D36   D(21,4,5,22)          179.8311         estimate D2E/DX2                !
 ! D37   D(21,4,5,23)           59.4346         estimate D2E/DX2                !
 ! D38   D(43,4,5,6)            60.7925         estimate D2E/DX2                !
 ! D39   D(43,4,5,22)          -59.0239         estimate D2E/DX2                !
 ! D40   D(43,4,5,23)         -179.4204         estimate D2E/DX2                !
 ! D41   D(4,5,6,7)            179.9227         estimate D2E/DX2                !
 ! D42   D(22,5,6,7)           -59.9737         estimate D2E/DX2                !
 ! D43   D(23,5,6,7)            59.8367         estimate D2E/DX2                !
 ! D44   D(5,6,7,24)           179.9614         estimate D2E/DX2                !
 ! D45   D(5,6,7,25)           -61.3149         estimate D2E/DX2                !
 ! D46   D(5,6,7,26)            61.2134         estimate D2E/DX2                !
 ! D47   D(2,8,45,44)          -29.1387         estimate D2E/DX2                !
 ! D48   D(1,9,10,11)         -175.2073         estimate D2E/DX2                !
 ! D49   D(1,9,10,13)          -48.288          estimate D2E/DX2                !
 ! D50   D(1,9,10,29)           68.0875         estimate D2E/DX2                !
 ! D51   D(27,9,10,11)          61.5668         estimate D2E/DX2                !
 ! D52   D(27,9,10,13)        -171.5139         estimate D2E/DX2                !
 ! D53   D(27,9,10,29)         -55.1384         estimate D2E/DX2                !
 ! D54   D(28,9,10,11)         -53.627          estimate D2E/DX2                !
 ! D55   D(28,9,10,13)          73.2923         estimate D2E/DX2                !
 ! D56   D(28,9,10,29)        -170.3322         estimate D2E/DX2                !
 ! D57   D(9,10,11,30)         -60.4543         estimate D2E/DX2                !
 ! D58   D(9,10,11,31)          59.4453         estimate D2E/DX2                !
 ! D59   D(9,10,11,32)         179.9497         estimate D2E/DX2                !
 ! D60   D(13,10,11,30)        172.5319         estimate D2E/DX2                !
 ! D61   D(13,10,11,31)        -67.5684         estimate D2E/DX2                !
 ! D62   D(13,10,11,32)         52.936          estimate D2E/DX2                !
 ! D63   D(29,10,11,30)         57.3573         estimate D2E/DX2                !
 ! D64   D(29,10,11,31)        177.257          estimate D2E/DX2                !
 ! D65   D(29,10,11,32)        -62.2386         estimate D2E/DX2                !
 ! D66   D(9,10,13,14)         -72.8925         estimate D2E/DX2                !
 ! D67   D(9,10,13,19)         105.9296         estimate D2E/DX2                !
 ! D68   D(11,10,13,14)         53.5244         estimate D2E/DX2                !
 ! D69   D(11,10,13,19)       -127.6535         estimate D2E/DX2                !
 ! D70   D(29,10,13,14)        169.1774         estimate D2E/DX2                !
 ! D71   D(29,10,13,19)        -12.0005         estimate D2E/DX2                !
 ! D72   D(10,13,14,15)        177.5358         estimate D2E/DX2                !
 ! D73   D(19,13,14,15)         -1.2535         estimate D2E/DX2                !
 ! D74   D(10,13,19,46)       -110.2873         estimate D2E/DX2                !
 ! D75   D(14,13,19,46)         68.3538         estimate D2E/DX2                !
 ! D76   D(13,14,15,16)       -179.2446         estimate D2E/DX2                !
 ! D77   D(13,14,15,36)        -59.4166         estimate D2E/DX2                !
 ! D78   D(13,14,15,37)         60.6942         estimate D2E/DX2                !
 ! D79   D(14,15,16,17)       -178.7398         estimate D2E/DX2                !
 ! D80   D(14,15,16,38)         61.3588         estimate D2E/DX2                !
 ! D81   D(14,15,16,39)        -59.0003         estimate D2E/DX2                !
 ! D82   D(36,15,16,17)         61.7795         estimate D2E/DX2                !
 ! D83   D(36,15,16,38)        -58.1219         estimate D2E/DX2                !
 ! D84   D(36,15,16,39)       -178.4809         estimate D2E/DX2                !
 ! D85   D(37,15,16,17)        -59.2737         estimate D2E/DX2                !
 ! D86   D(37,15,16,38)       -179.1752         estimate D2E/DX2                !
 ! D87   D(37,15,16,39)         60.4658         estimate D2E/DX2                !
 ! D88   D(15,16,17,18)       -179.3116         estimate D2E/DX2                !
 ! D89   D(38,16,17,18)        -59.1793         estimate D2E/DX2                !
 ! D90   D(39,16,17,18)         60.5879         estimate D2E/DX2                !
 ! D91   D(16,17,18,40)        -61.0548         estimate D2E/DX2                !
 ! D92   D(16,17,18,41)         61.467          estimate D2E/DX2                !
 ! D93   D(16,17,18,42)       -179.8193         estimate D2E/DX2                !
 ! D94   D(13,19,46,44)          4.9748         estimate D2E/DX2                !
 ! D95   D(46,44,45,8)         -49.1158         estimate D2E/DX2                !
 ! D96   D(45,44,46,19)         99.0028         estimate D2E/DX2                !
 --------------------------------------------------------------------------------
 Trust Radius=3.00D-01 FncErr=1.00D-07 GrdErr=1.00D-06
 Number of steps in this run=    233 maximum allowed number of steps=    276.
 GradGradGradGradGradGradGradGradGradGradGradGradGradGradGradGradGradGrad

                          Input orientation:                          
 ---------------------------------------------------------------------
 Center     Atomic      Atomic             Coordinates (Angstroms)
 Number     Number       Type             X           Y           Z
 ---------------------------------------------------------------------
      1          6           0        0.260600   -0.073600   -1.593700
      2          6           0        1.266600   -1.114500   -1.112200
      3          8           0        2.460100   -0.528400   -0.819700
      4          6           0        3.495500   -1.358500   -0.366600
      5          6           0        4.717100   -0.497700   -0.081200
      6          8           0        5.760900   -1.326100    0.369700
      7          6           0        6.935600   -0.597500    0.655400
      8          8           0        1.026400   -2.297800   -1.026900
      9          6           0        0.217100    1.219600   -0.754800
     10          6           0        0.049800    1.011200    0.763200
     11          6           0       -0.101500    2.353500    1.498400
     12          6           0        0.505900    0.237100   -3.079400
     13          6           0       -1.077400    0.040500    1.096100
     14          8           0       -2.289600    0.618600    0.876300
     15          6           0       -3.432700   -0.166200    1.086100
     16          6           0       -4.661300    0.671600    0.764400
     17          8           0       -5.813800   -0.099900    1.000300
     18          6           0       -6.999400    0.608200    0.707900
     19          8           0       -0.892500   -1.092200    1.479700
     20          1           0       -0.746800   -0.555300   -1.520700
     21          1           0        3.733000   -2.111000   -1.154500
     22          1           0        4.475400    0.255400    0.704600
     23          1           0        5.036500    0.027800   -1.011100
     24          1           0        7.709900   -1.316600    1.004600
     25          1           0        7.307200   -0.089200   -0.262000
     26          1           0        6.744000    0.142700    1.463700
     27          1           0        1.145700    1.810800   -0.937400
     28          1           0       -0.629400    1.847600   -1.122700
     29          1           0        0.983400    0.537100    1.157500
     30          1           0        0.796800    2.995100    1.347900
     31          1           0       -0.984200    2.927000    1.135600
     32          1           0       -0.223000    2.197500    2.594900
     33          1           0       -0.275000    0.921400   -3.483000
     34          1           0        0.486800   -0.692400   -3.693600
     35          1           0        1.495900    0.724100   -3.231600
     36          1           0       -3.396000   -1.056900    0.417100
     37          1           0       -3.460700   -0.494800    2.151200
     38          1           0       -4.636300    0.985200   -0.305200
     39          1           0       -4.684100    1.577100    1.414400
     40          1           0       -7.079200    1.510900    1.353400
     41          1           0       -7.024400    0.891800   -0.367800
     42          1           0       -7.861800   -0.062100    0.921100
     43          1           0        3.168800   -1.876500    0.565400
     44          8           0       -1.536300   -2.928300   -0.345500
     45          1           0       -0.720900   -3.151400   -0.759300
     46          1           0       -1.252700   -2.624800    0.500000
 ---------------------------------------------------------------------
                    Distance matrix (angstroms):
                    1          2          3          4          5
     1  C    0.000000
     2  C    1.525566   0.000000
     3  O    2.375651   1.361437   0.000000
     4  C    3.690707   2.362933   1.402291   0.000000
     5  C    4.725242   3.653677   2.374947   1.521426   0.000000
     6  O    5.973022   4.737039   3.598094   2.382273   1.406796
     7  C    7.063182   5.960643   4.712833   3.668500   2.339718
     8  O    2.419665   1.210442   2.286745   2.723001   4.213784
     9  C    1.542080   2.584029   2.844427   4.188700   4.863420
    10  C    2.603115   3.084855   3.268866   4.331833   4.977296
    11  C    3.947533   4.551259   4.498970   5.495050   5.817507
    12  C    1.537534   2.505067   3.084012   4.340845   5.221431
    13  C    3.006374   3.421250   4.062985   5.000811   5.937333
    14  O    3.617121   4.427677   5.172202   6.238678   7.159384
    15  C    4.564030   5.274013   6.203898   7.178570   8.239643
    16  C    5.508272   6.469295   7.393491   8.481383   9.488766
    17  O    6.605139   7.458159   8.482537   9.492921  10.593760
    18  C    7.646556   8.637547   9.649226  10.731514  11.795002
    19  O    3.437001   3.373449   4.104271   4.768048   5.852987
    20  H    1.119026   2.129168   3.282732   4.469249   5.650635
    21  H    4.049871   2.660438   2.058395   1.115100   2.173284
    22  H    4.811960   3.933673   2.645613   2.170794   1.114926
    23  H    4.812372   3.940459   2.642694   2.170689   1.114846
    24  H    7.986757   6.785116   5.613353   4.432055   3.287311
    25  H    7.171349   6.185704   4.898806   4.018846   2.628341
    26  H    7.171398   6.182048   4.900621   4.019496   2.627766
    27  H    2.182910   2.933011   2.685769   3.986456   4.337874
    28  H    2.169090   3.516954   3.909245   5.278784   5.930448
    29  H    2.909381   2.821263   2.687983   3.496688   4.067641
    30  H    4.284558   4.812652   4.458712   5.401511   5.441574
    31  H    4.242901   5.143192   5.256062   6.378858   6.761212
    32  H    4.789168   5.189493   5.127285   5.936570   6.231388
    33  H    2.201442   3.484553   4.083609   5.396903   6.205413
    34  H    2.200832   2.729447   3.490001   4.534853   5.566218
    35  H    2.201138   2.815117   2.883695   4.067413   4.668399
    36  H    4.287297   4.907333   6.008568   6.942472   8.147601
    37  H    5.296202   5.777644   6.624443   7.448088   8.477030
    38  H    5.173096   6.316979   7.274241   8.463030   9.472870
    39  H    6.018599   7.002803   7.775855   8.871052   9.742904
    40  H    8.066517   9.089790   9.993966  11.091264  12.051774
    41  H    7.450238   8.562713   9.600881  10.757888  11.826905
    42  H    8.502807   9.411139  10.478046  11.503351  12.626285
    43  H    4.045960   2.648273   2.058672   1.115204   2.171731
    44  O    3.596688   3.425485   4.685680   5.271027   6.714364
    45  H    3.336528   2.867692   4.123413   4.598558   6.088825
    46  H    3.630741   3.350682   4.463338   4.989981   6.364029
                    6          7          8          9         10
     6  O    0.000000
     7  C    1.411525   0.000000
     8  O    5.030923   6.374935   0.000000
     9  C    6.203129   7.101321   3.619545   0.000000
    10  C    6.183403   7.072042   3.886861   1.541345   0.000000
    11  C    7.012928   7.677228   5.411459   2.542468   1.537914
    12  C    6.477261   7.482401   3.302937   2.540173   3.946243
    13  C    7.011248   8.050430   3.794832   2.547909   1.524356
    14  O    8.297533   9.307632   4.808681   3.050448   2.374809
    15  C    9.294131  10.386201   5.375134   4.316294   3.690304
    16  C   10.619268  11.666644   6.661533   5.138780   4.723324
    17  O   11.656539  12.763768   7.465162   6.418194   5.972651
    18  C   12.910505  13.987162   8.710214   7.388584   7.060927
    19  O    6.749410   7.886910   3.379156   3.401268   2.413627
    20  H    6.820404   7.984764   2.534637   2.160087   2.881786
    21  H    2.655491   3.977822   2.716037   4.859445   5.195351
    22  H    2.065384   2.604312   4.627367   4.603547   4.490056
    23  H    2.065045   2.602845   4.635684   4.971186   5.383530
    24  H    2.049827   1.112918   7.054000   8.103694   8.009623
    25  H    2.078463   1.112690   6.701599   7.226709   7.411597
    26  H    2.078628   1.112634   6.697020   6.977240   6.786553
    27  H    5.731381   6.469920   4.111306   1.115867   2.175407
    28  H    7.289414   8.146740   4.464884   1.116377   2.171980
    29  H    5.188126   6.080140   3.579121   2.170233   1.118862
    30  H    6.653716   7.146411   5.805789   2.812437   2.199032
    31  H    8.010733   8.681931   6.001454   2.816372   2.208648
    32  H    7.292073   7.925859   5.906451   3.517167   2.199285
    33  H    7.505108   8.451400   4.253154   2.788218   4.259551
    34  H    6.687908   7.778806   3.159077   3.516394   4.791272
    35  H    5.946672   6.815111   3.770015   2.831146   4.258176
    36  H    9.160979  10.344554   4.814830   4.428351   4.033653
    37  H    9.428823  10.503857   5.786639   4.991014   4.064258
    38  H   10.672365  11.719068   6.585219   4.879813   4.806422
    39  H   10.891189  11.845775   7.320151   5.371685   4.811872
    40  H   13.186524  14.189685   9.266756   7.600352   7.170821
    41  H   12.997187  14.076454   8.684661   7.259239   7.165035
    42  H   13.692322  14.809466   9.369800   8.349852   7.985632
    43  H    2.657108   3.979035   2.702368   4.476751   4.255126
    44  O    7.505177   8.843502   2.725668   4.521837   4.389144
    45  H    6.827891   8.194252   1.962982   4.470515   4.498802
    46  H    7.134016   8.436963   2.762725   4.302818   3.871211
                   11         12         13         14         15
    11  C    0.000000
    12  C    5.079797   0.000000
    13  C    2.542478   4.469932   0.000000
    14  O    2.860886   4.858799   1.360860   0.000000
    15  C    4.197115   5.746878   2.364374   1.402357   0.000000
    16  C    4.915213   6.454730   3.654128   2.374930   1.521466
    17  O    6.236798   7.529683   4.739449   3.598834   2.383568
    18  C    7.159049   8.414920   5.961801   4.712821   3.669343
    19  O    3.535375   4.950551   1.210102   2.289720   2.732218
    20  H    4.241756   2.150977   2.704056   3.082837   3.763092
    21  H    6.455465   4.430913   5.730105   6.917122   7.755630
    22  H    5.097073   5.484152   5.570731   6.776918   7.928514
    23  H    6.172966   4.984778   6.466856   7.588351   8.727155
    24  H    8.644735   8.425595   8.891948  10.185846  11.202125
    25  H    7.997164   7.368982   8.494868   9.689958  10.824452
    26  H    7.193727   7.717678   7.830701   9.065178  10.188387
    27  H    2.789830   2.733869   3.494461   4.063513   5.381898
    28  H    2.721172   2.776921   2.896444   2.874492   4.097887
    29  H    2.143019   4.274263   2.120679   3.286068   4.472322
    30  H    1.114111   5.224191   3.507947   3.923777   5.286873
    31  H    1.113412   5.217488   2.888274   2.664586   3.945312
    32  H    1.114186   6.047491   2.762073   3.117266   4.262127
    33  H    5.186074   1.113986   4.731595   4.811839   5.659560
    34  H    6.048179   1.114261   5.091669   5.505552   6.203620
    35  H    5.251622   1.113748   5.081158   5.587127   6.612584
    36  H    4.863514   5.396737   2.653532   2.059681   1.114565
    37  H    4.452324   6.605208   2.660808   2.058277   1.114989
    38  H    5.068494   5.890506   3.939780   2.652798   2.170274
    39  H    4.648664   6.994708   3.933286   2.634749   2.170916
    40  H    7.029886   8.877276   6.184649   4.895313   4.022571
    41  H    7.317501   8.030369   6.183407   4.903137   4.016653
    42  H    8.148046   9.279651   6.787432   5.613802   4.433395
    43  H    5.427546   4.984266   4.689003   6.009685   6.839302
    44  O    5.775468   4.654519   3.332052   3.826324   3.643488
    45  H    5.982039   4.286004   3.709154   4.398739   4.435175
    46  H    5.206298   4.908691   2.736766   3.425844   3.337758
                   16         17         18         19         20
    16  C    0.000000
    17  O    1.406811   0.000000
    18  C    2.339642   1.411577   0.000000
    19  O    4.222144   5.043181   6.386021   0.000000
    20  H    4.695772   5.677792   6.739095   3.051539   0.000000
    21  H    9.049271   9.991450  11.227065   5.419614   4.756355
    22  H    9.146370  10.299578  11.480223   5.588484   5.734158
    23  H    9.879990  11.035898  12.171882   6.527750   5.834917
    24  H   12.532247  13.578322  14.837668   8.618431   8.858470
    25  H   12.036499  13.181584  14.356388   8.442429   8.165078
    26  H   11.438952  12.568689  13.772036   7.735720   8.093574
    27  H    6.157528   7.472623   8.396184   4.292323   3.085486
    28  H    4.604383   5.931095   6.742708   3.934988   2.438466
    29  H    5.659970   6.828793   7.995767   2.505480   3.370413
    30  H    5.960703   7.307522   8.178486   4.424605   4.818393
    31  H    4.329629   5.701356   6.460835   4.034945   4.386194
    32  H    5.037619   6.251227   7.211535   3.537517   4.979000
    33  H    6.110846   7.198704   7.929646   5.391130   2.500772
    34  H    6.945300   7.879170   8.781113   5.368924   2.502411
    35  H    7.340428   8.486440   9.364999   5.585673   3.097377
    36  H    2.170095   2.664907   3.980153   2.719904   3.320381
    37  H    2.173740   2.649075   3.977703   2.720928   4.566373
    38  H    1.114905   2.065981   2.598604   4.638696   4.356465
    39  H    1.114877   2.063984   2.607398   4.637419   5.353903
    40  H    2.626326   2.078604   1.112612   6.713221   7.254579
    41  H    2.629564   2.078634   1.112737   6.704454   6.544581
    42  H    3.287259   2.049879   1.112875   7.067127   7.538492
    43  H    8.236679   9.166927  10.468349   4.236181   4.629180
    44  O    4.894567   5.301701   6.592567   2.667789   2.763247
    45  H    5.697696   6.192372   7.463701   3.046781   2.705575
    46  H    4.749180   5.237275   6.596974   1.854297   2.936323
                   21         22         23         24         25
    21  H    0.000000
    22  H    3.099558   0.000000
    23  H    2.508813   1.819412   0.000000
    24  H    4.594401   3.608764   3.607981   0.000000
    25  H    4.202278   3.012002   2.393934   1.809131   0.000000
    26  H    4.582604   2.394886   3.008886   1.809224   1.830031
    27  H    4.703378   4.025212   4.280519   7.526003   6.483074
    28  H    5.890845   5.650939   5.952021   9.169596   8.214720
    29  H    4.462967   3.532497   4.624914   6.978924   6.511350
    30  H    6.399651   4.631618   5.687249   8.154726   7.381734
    31  H    7.271725   6.093475   7.018726   9.675364   8.932976
    32  H    6.947741   5.424016   6.735961   8.820933   8.372263
    33  H    5.539082   6.367562   5.926284   9.428989   8.299754
    34  H    4.358586   6.012605   5.330503   8.639206   7.658824
    35  H    4.166144   4.958908   4.236898   7.792538   6.576564
    36  H    7.375886   7.985219   8.621101  11.124460  10.768292
    37  H    8.080166   8.101675   9.081611  11.259323  11.042451
    38  H    8.963981   9.196487   9.745664  12.627055  11.991805
    39  H    9.541955   9.281549  10.137724  12.733918  12.222035
    40  H   11.675247  11.640705  12.433046  15.061006  14.564970
    41  H   11.196310  11.567214  12.108907  14.961955  14.365525
    42  H   11.955981  12.343184  13.042531  15.622374  15.215092
    43  H    1.825204   2.504312   3.098389   4.596518   4.583163
    44  O    5.393328   6.883255   7.237627   9.482223   9.288431
    45  H    4.590843   6.383637   6.581669   8.806601   8.606670
    46  H    5.278121   6.414713   6.990976   9.071615   8.960011
                   26         27         28         29         30
    26  H    0.000000
    27  H    6.315758   0.000000
    28  H    7.997698   1.785125   0.000000
    29  H    5.782199   2.457083   3.085101   0.000000
    30  H    6.596877   2.597478   3.074844   2.472415   0.000000
    31  H    8.221013   3.174855   2.528024   3.095731   1.794901
    32  H    7.351252   3.807889   3.756081   2.505683   1.797545
    33  H    8.622214   3.047868   2.560168   4.823432   5.365313
    34  H    8.151545   3.781111   3.782463   5.029061   6.253837
    35  H    7.065863   2.562598   3.197907   4.422875   5.159264
    36  H   10.264210   5.539442   4.296648   4.718916   5.904631
    37  H   10.247681   6.006177   4.921536   4.669291   5.563362
    38  H   11.547729   5.874761   4.179388   5.824201   6.024202
    39  H   11.517873   6.290640   4.790682   5.767855   5.661750
    40  H   13.891184   8.543224   6.916962   8.123557   8.014628
    41  H   13.909866   8.241331   6.509950   8.159486   8.278808
    42  H   14.617310   9.385991   7.754462   8.868624   9.192387
    43  H    4.203114   4.466265   5.580764   3.309384   5.474594
    44  O    9.014855   5.477457   4.922980   4.540583   6.587688
    45  H    8.456805   5.304653   5.013026   4.492638   6.672568
    46  H    8.516747   5.243376   4.798335   3.928112   6.041743
                   31         32         33         34         35
    31  H    0.000000
    32  H    1.800320   0.000000
    33  H    5.084964   6.210636   0.000000
    34  H    6.211688   6.957052   1.796954   0.000000
    35  H    5.484168   6.250890   1.799504   1.799500   0.000000
    36  H    4.712163   5.040026   5.372624   5.666291   6.357331
    37  H    4.344331   4.234153   6.625596   7.055742   7.418095
    38  H    4.379992   5.418253   5.396612   6.367240   6.799696
    39  H    3.948319   4.656167   6.622283   7.614493   7.778517
    40  H    6.261134   7.001444   8.368716   9.357943   9.755697
    41  H    6.548761   7.532694   7.433690   8.365929   8.990272
    42  H    7.502140   8.139943   8.827395   9.559909  10.267891
    43  H    6.375433   5.676324   6.006459   5.170522   4.896828
    44  O    6.064900   6.053473   5.123961   4.505769   5.555523
    45  H    6.372356   6.333190   4.919865   4.014391   5.103525
    46  H    5.594512   5.357562   5.421782   4.934198   5.717934
                   36         37         38         39         40
    36  H    0.000000
    37  H    1.824074   0.000000
    38  H    2.496044   3.099409   0.000000
    39  H    3.097057   2.516416   1.819246   0.000000
    40  H    4.586526   4.213414   2.999179   2.396791   0.000000
    41  H    4.192706   4.579081   2.390745   3.020410   1.829977
    42  H    4.602935   4.590213   3.606175   3.609446   1.809330
    43  H    6.617427   6.955151   8.358640   8.620684  10.822057
    44  O    2.746303   3.982304   4.992705   5.771007   7.301815
    45  H    3.595415   4.799483   5.713845   6.541455   8.162630
    46  H    2.656862   3.484053   5.012903   5.501509   7.195860
                   41         42         43         44         45
    41  H    0.000000
    42  H    1.808985   0.000000
    43  H   10.603569  11.184485   0.000000
    44  O    6.686771   7.059131   4.906525   0.000000
    45  H    7.498990   7.959898   4.302321   0.941213   0.000000
    46  H    6.814108   7.101053   4.484851   0.942025   1.464908
                   46
    46  H    0.000000
 Stoichiometry    C13H26O7
 Framework group  C1[X(C13H26O7)]
 Deg. of freedom   132
 Full point group                 C1      NOp   1
 Largest Abelian subgroup         C1      NOp   1
 Largest concise Abelian subgroup C1      NOp   1
                         Standard orientation:                         
 ---------------------------------------------------------------------
 Center     Atomic      Atomic             Coordinates (Angstroms)
 Number     Number       Type             X           Y           Z
 ---------------------------------------------------------------------
      1          6           0       -0.415804   -0.770691    1.436064
      2          6           0       -1.480045   -1.172407    0.419517
      3          8           0       -2.566790   -0.358032    0.515905
      4          6           0       -3.639376   -0.603719   -0.353356
      5          6           0       -4.723997    0.429944   -0.089014
      6          8           0       -5.804915    0.185565   -0.955600
      7          6           0       -6.857849    1.106962   -0.769162
      8          8           0       -1.366042   -2.102599   -0.346588
      9          6           0       -0.147350    0.745186    1.525849
     10          6           0        0.142106    1.440661    0.181129
     11          6           0        0.512592    2.919311    0.384884
     12          6           0       -0.767875   -1.354156    2.814333
     13          6           0        1.181077    0.694228   -0.647747
     14          8           0        2.423073    0.848957   -0.113477
     15          6           0        3.486544    0.176704   -0.732920
     16          6           0        4.763812    0.476836    0.037382
     17          8           0        5.840593   -0.170942   -0.595109
     18          6           0        7.063724    0.049087    0.074285
     19          8           0        0.909208    0.041199   -1.629576
     20          1           0        0.533958   -1.260888    1.104586
     21          1           0       -4.034516   -1.629608   -0.166634
     22          1           0       -4.324840    1.454467   -0.273637
     23          1           0       -5.071524    0.353436    0.967514
     24          1           0       -7.669909    0.850782   -1.485763
     25          1           0       -7.257708    1.031706    0.266467
     26          1           0       -6.507498    2.141701   -0.980172
     27          1           0       -1.017605    1.247197    2.011440
     28          1           0        0.724155    0.907092    2.204497
     29          1           0       -0.795837    1.429854   -0.428788
     30          1           0       -0.318968    3.475843    0.874806
     31          1           0        1.414322    3.035358    1.027613
     32          1           0        0.721712    3.417215   -0.589678
     33          1           0        0.041560   -1.158497    3.554264
     34          1           0       -0.912104   -2.457680    2.759474
     35          1           0       -1.707518   -0.908539    3.212994
     36          1           0        3.286135   -0.919634   -0.721338
     37          1           0        3.580916    0.532244   -1.785481
     38          1           0        4.670300    0.106251    1.084730
     39          1           0        4.950280    1.575939    0.049701
     40          1           0        7.305818    1.134938    0.089278
     41          1           0        7.015729   -0.356368    1.109412
     42          1           0        7.862660   -0.488458   -0.483601
     43          1           0       -3.283590   -0.521072   -1.407048
     44          8           0        1.164383   -2.585219   -1.237261
     45          1           0        0.292942   -2.884954   -1.045869
     46          1           0        0.999700   -1.807438   -1.742581
 ---------------------------------------------------------------------
 Rotational constants (GHZ):      0.6288456      0.1199940      0.1158117
 Standard basis: 6-31+G(d,p) (6D, 7F)
 There are   510 symmetry adapted cartesian basis functions of A   symmetry.
 There are   510 symmetry adapted basis functions of A   symmetry.
   510 basis functions,   822 primitive gaussians,   510 cartesian basis functions
    80 alpha electrons       80 beta electrons
       nuclear repulsion energy      1706.8361157990 Hartrees.
 NAtoms=   46 NActive=   46 NUniq=   46 SFac= 1.00D+00 NAtFMM=   60 NAOKFM=F Big=F
 Integral buffers will be    131072 words long.
 Raffenetti 2 integral format.
 Two-electron integral symmetry is turned on.
 One-electron integrals computed using PRISM.
 NBasis=   510 RedAO= T EigKep=  6.99D-06  NBF=   510
 NBsUse=   510 1.00D-06 EigRej= -1.00D+00 NBFU=   510
 ExpMin= 4.38D-02 ExpMax= 5.48D+03 ExpMxC= 8.25D+02 IAcc=2 IRadAn=         4 AccDes= 0.00D+00
 Harris functional with IExCor=  402 and IRadAn=       4 diagonalized for initial guess.
 HarFok:  IExCor=  402 AccDes= 0.00D+00 IRadAn=         4 IDoV= 1 UseB2=F ITyADJ=14
 ICtDFT=  3500011 ScaDFX=  1.000000  1.000000  1.000000  1.000000
 FoFCou: FMM=F IPFlag=           0 FMFlag=      100000 FMFlg1=           0
         NFxFlg=           0 DoJE=T BraDBF=F KetDBF=T FulRan=T
         wScrn=  0.000000 ICntrl=     500 IOpCl=  0 I1Cent=   200000004 NGrid=           0
         NMat0=    1 NMatS0=      1 NMatT0=    0 NMatD0=    1 NMtDS0=    0 NMtDT0=    0
 Petite list used in FoFCou.
 Requested convergence on RMS density matrix=1.00D-08 within 128 cycles.
 Requested convergence on MAX density matrix=1.00D-06.
 Requested convergence on             energy=1.00D-06.
 No special actions if energy rises.
 SCF Done:  E(RB3LYP) =  -1037.67191281     A.U. after   14 cycles
            NFock= 14  Conv=0.49D-08     -V/T= 2.0095

 **********************************************************************

            Population analysis using the SCF density.

 **********************************************************************

 Orbital symmetries:
       Occupied  (A) (A) (A) (A) (A) (A) (A) (A) (A) (A) (A) (A)
                 (A) (A) (A) (A) (A) (A) (A) (A) (A) (A) (A) (A)
                 (A) (A) (A) (A) (A) (A) (A) (A) (A) (A) (A) (A)
                 (A) (A) (A) (A) (A) (A) (A) (A) (A) (A) (A) (A)
                 (A) (A) (A) (A) (A) (A) (A) (A) (A) (A) (A) (A)
                 (A) (A) (A) (A) (A) (A) (A) (A) (A) (A) (A) (A)
                 (A) (A) (A) (A) (A) (A) (A) (A)
       Virtual   (A) (A) (A) (A) (A) (A) (A) (A) (A) (A) (A) (A)
                 (A) (A) (A) (A) (A) (A) (A) (A) (A) (A) (A) (A)
                 (A) (A) (A) (A) (A) (A) (A) (A) (A) (A) (A) (A)
                 (A) (A) (A) (A) (A) (A) (A) (A) (A) (A) (A) (A)
                 (A) (A) (A) (A) (A) (A) (A) (A) (A) (A) (A) (A)
                 (A) (A) (A) (A) (A) (A) (A) (A) (A) (A) (A) (A)
                 (A) (A) (A) (A) (A) (A) (A) (A) (A) (A) (A) (A)
                 (A) (A) (A) (A) (A) (A) (A) (A) (A) (A) (A) (A)
                 (A) (A) (A) (A) (A) (A) (A) (A) (A) (A) (A) (A)
                 (A) (A) (A) (A) (A) (A) (A) (A) (A) (A) (A) (A)
                 (A) (A) (A) (A) (A) (A) (A) (A) (A) (A) (A) (A)
                 (A) (A) (A) (A) (A) (A) (A) (A) (A) (A) (A) (A)
                 (A) (A) (A) (A) (A) (A) (A) (A) (A) (A) (A) (A)
                 (A) (A) (A) (A) (A) (A) (A) (A) (A) (A) (A) (A)
                 (A) (A) (A) (A) (A) (A) (A) (A) (A) (A) (A) (A)
                 (A) (A) (A) (A) (A) (A) (A) (A) (A) (A) (A) (A)
                 (A) (A) (A) (A) (A) (A) (A) (A) (A) (A) (A) (A)
                 (A) (A) (A) (A) (A) (A) (A) (A) (A) (A) (A) (A)
                 (A) (A) (A) (A) (A) (A) (A) (A) (A) (A) (A) (A)
                 (A) (A) (A) (A) (A) (A) (A) (A) (A) (A) (A) (A)
                 (A) (A) (A) (A) (A) (A) (A) (A) (A) (A) (A) (A)
                 (A) (A) (A) (A) (A) (A) (A) (A) (A) (A) (A) (A)
                 (A) (A) (A) (A) (A) (A) (A) (A) (A) (A) (A) (A)
                 (A) (A) (A) (A) (A) (A) (A) (A) (A) (A) (A) (A)
                 (A) (A) (A) (A) (A) (A) (A) (A) (A) (A) (A) (A)
                 (A) (A) (A) (A) (A) (A) (A) (A) (A) (A) (A) (A)
                 (A) (A) (A) (A) (A) (A) (A) (A) (A) (A) (A) (A)
                 (A) (A) (A) (A) (A) (A) (A) (A) (A) (A) (A) (A)
                 (A) (A) (A) (A) (A) (A) (A) (A) (A) (A) (A) (A)
                 (A) (A) (A) (A) (A) (A) (A) (A) (A) (A) (A) (A)
                 (A) (A) (A) (A) (A) (A) (A) (A) (A) (A) (A) (A)
                 (A) (A) (A) (A) (A) (A) (A) (A) (A) (A) (A) (A)
                 (A) (A) (A) (A) (A) (A) (A) (A) (A) (A) (A) (A)
                 (A) (A) (A) (A) (A) (A) (A) (A) (A) (A) (A) (A)
                 (A) (A) (A) (A) (A) (A) (A) (A) (A) (A) (A) (A)
                 (A) (A) (A) (A) (A) (A) (A) (A) (A) (A)
 The electronic state is 1-A.
 Alpha  occ. eigenvalues --  -19.21810 -19.21525 -19.17489 -19.16836 -19.16502
 Alpha  occ. eigenvalues --  -19.16480 -19.10778 -10.33648 -10.33587 -10.25865
 Alpha  occ. eigenvalues --  -10.25543 -10.24994 -10.24869 -10.24802 -10.24248
 Alpha  occ. eigenvalues --  -10.22220 -10.22017 -10.21327 -10.20356 -10.20261
 Alpha  occ. eigenvalues --   -1.12843  -1.12592  -1.05929  -1.05332  -1.04619
 Alpha  occ. eigenvalues --   -1.04475  -0.97996  -0.84528  -0.80685  -0.78271
 Alpha  occ. eigenvalues --   -0.77204  -0.70609  -0.70098  -0.69779  -0.65185
 Alpha  occ. eigenvalues --   -0.64656  -0.62185  -0.61466  -0.58333  -0.57667
 Alpha  occ. eigenvalues --   -0.52448  -0.52416  -0.52210  -0.51436  -0.50323
 Alpha  occ. eigenvalues --   -0.49604  -0.48695  -0.48582  -0.48352  -0.47901
 Alpha  occ. eigenvalues --   -0.47714  -0.46979  -0.45832  -0.45309  -0.44698
 Alpha  occ. eigenvalues --   -0.42891  -0.41731  -0.41486  -0.41125  -0.40814
 Alpha  occ. eigenvalues --   -0.39517  -0.39364  -0.38887  -0.38069  -0.38012
 Alpha  occ. eigenvalues --   -0.36708  -0.36227  -0.35454  -0.35133  -0.34516
 Alpha  occ. eigenvalues --   -0.33957  -0.33754  -0.33096  -0.31981  -0.31636
 Alpha  occ. eigenvalues --   -0.29803  -0.29001  -0.27774  -0.27124  -0.26873
 Alpha virt. eigenvalues --   -0.01918  -0.01680  -0.00724   0.00240   0.00744
 Alpha virt. eigenvalues --    0.01039   0.01515   0.01922   0.02439   0.02636
 Alpha virt. eigenvalues --    0.03200   0.03407   0.03839   0.04060   0.04224
 Alpha virt. eigenvalues --    0.04995   0.05439   0.05552   0.05904   0.06594
 Alpha virt. eigenvalues --    0.06936   0.07074   0.07361   0.07886   0.08336
 Alpha virt. eigenvalues --    0.08755   0.09449   0.09554   0.09966   0.10536
 Alpha virt. eigenvalues --    0.10700   0.10909   0.11321   0.11751   0.12019
 Alpha virt. eigenvalues --    0.12366   0.12763   0.13433   0.13873   0.14076
 Alpha virt. eigenvalues --    0.14827   0.15127   0.15411   0.15737   0.16534
 Alpha virt. eigenvalues --    0.16630   0.16945   0.17623   0.17832   0.18083
 Alpha virt. eigenvalues --    0.18312   0.18616   0.19446   0.19635   0.19866
 Alpha virt. eigenvalues --    0.20044   0.20678   0.20741   0.21039   0.21425
 Alpha virt. eigenvalues --    0.21694   0.21811   0.22191   0.22321   0.22689
 Alpha virt. eigenvalues --    0.23088   0.23270   0.23586   0.23852   0.24122
 Alpha virt. eigenvalues --    0.24418   0.24708   0.24904   0.25599   0.25799
 Alpha virt. eigenvalues --    0.26039   0.26377   0.26967   0.27195   0.27640
 Alpha virt. eigenvalues --    0.27699   0.28190   0.28450   0.28708   0.29173
 Alpha virt. eigenvalues --    0.29371   0.29771   0.29997   0.30513   0.30641
 Alpha virt. eigenvalues --    0.31204   0.31363   0.31827   0.32278   0.33085
 Alpha virt. eigenvalues --    0.33533   0.33790   0.34665   0.35117   0.35472
 Alpha virt. eigenvalues --    0.35834   0.36496   0.37090   0.37181   0.37839
 Alpha virt. eigenvalues --    0.38473   0.39179   0.39858   0.40236   0.40601
 Alpha virt. eigenvalues --    0.41173   0.41367   0.41733   0.42288   0.42684
 Alpha virt. eigenvalues --    0.43371   0.45023   0.45349   0.46240   0.46837
 Alpha virt. eigenvalues --    0.47849   0.48722   0.49940   0.52107   0.54145
 Alpha virt. eigenvalues --    0.55834   0.61948   0.62223   0.63349   0.64321
 Alpha virt. eigenvalues --    0.64870   0.65956   0.66183   0.66432   0.67666
 Alpha virt. eigenvalues --    0.68637   0.69164   0.70051   0.70675   0.71949
 Alpha virt. eigenvalues --    0.72676   0.73754   0.74519   0.75261   0.75821
 Alpha virt. eigenvalues --    0.76401   0.78262   0.78597   0.79934   0.82250
 Alpha virt. eigenvalues --    0.82965   0.83252   0.85002   0.86191   0.86552
 Alpha virt. eigenvalues --    0.87070   0.87198   0.87976   0.89040   0.89474
 Alpha virt. eigenvalues --    0.91214   0.91318   0.92697   0.92830   0.93480
 Alpha virt. eigenvalues --    0.94482   0.95416   0.96408   0.97006   0.98096
 Alpha virt. eigenvalues --    0.98616   0.99657   1.00152   1.00744   1.00968
 Alpha virt. eigenvalues --    1.01769   1.02495   1.03337   1.06115   1.06619
 Alpha virt. eigenvalues --    1.07062   1.08296   1.09663   1.11023   1.11548
 Alpha virt. eigenvalues --    1.12030   1.14157   1.14885   1.15998   1.16289
 Alpha virt. eigenvalues --    1.16972   1.18556   1.19052   1.19775   1.20421
 Alpha virt. eigenvalues --    1.21815   1.22462   1.23454   1.23663   1.24306
 Alpha virt. eigenvalues --    1.25368   1.25847   1.26846   1.28249   1.29008
 Alpha virt. eigenvalues --    1.29846   1.30589   1.30808   1.31440   1.33022
 Alpha virt. eigenvalues --    1.34918   1.35595   1.37193   1.38450   1.39002
 Alpha virt. eigenvalues --    1.39519   1.39768   1.41007   1.41211   1.42541
 Alpha virt. eigenvalues --    1.43475   1.44633   1.45585   1.47870   1.48281
 Alpha virt. eigenvalues --    1.48666   1.50211   1.51865   1.52270   1.52826
 Alpha virt. eigenvalues --    1.53441   1.54115   1.54968   1.55645   1.55942
 Alpha virt. eigenvalues --    1.58288   1.58434   1.62820   1.63274   1.64655
 Alpha virt. eigenvalues --    1.65231   1.66544   1.68617   1.69644   1.71316
 Alpha virt. eigenvalues --    1.72934   1.73427   1.73941   1.74544   1.75806
 Alpha virt. eigenvalues --    1.77843   1.78582   1.80837   1.82274   1.83552
 Alpha virt. eigenvalues --    1.84002   1.85237   1.86377   1.87193   1.87504
 Alpha virt. eigenvalues --    1.89347   1.90076   1.90167   1.91340   1.92473
 Alpha virt. eigenvalues --    1.92909   1.93528   1.94184   1.95088   1.95816
 Alpha virt. eigenvalues --    1.96680   1.97251   1.97358   1.98004   1.98354
 Alpha virt. eigenvalues --    1.99717   1.99873   2.00060   2.00448   2.02186
 Alpha virt. eigenvalues --    2.02804   2.03403   2.03645   2.03790   2.04189
 Alpha virt. eigenvalues --    2.04366   2.04635   2.05424   2.05723   2.06774
 Alpha virt. eigenvalues --    2.07326   2.07855   2.08069   2.08647   2.09077
 Alpha virt. eigenvalues --    2.09904   2.10513   2.11158   2.11947   2.12414
 Alpha virt. eigenvalues --    2.12702   2.14468   2.17712   2.18275   2.19138
 Alpha virt. eigenvalues --    2.22676   2.25552   2.26438   2.27614   2.28562
 Alpha virt. eigenvalues --    2.29697   2.31323   2.33499   2.34219   2.36368
 Alpha virt. eigenvalues --    2.37267   2.39990   2.40600   2.41815   2.42910
 Alpha virt. eigenvalues --    2.44338   2.45532   2.46586   2.48666   2.51344
 Alpha virt. eigenvalues --    2.51882   2.52151   2.53066   2.53615   2.54210
 Alpha virt. eigenvalues --    2.56804   2.58609   2.59173   2.60326   2.60732
 Alpha virt. eigenvalues --    2.61074   2.61589   2.63140   2.64915   2.65921
 Alpha virt. eigenvalues --    2.66306   2.67306   2.67929   2.68682   2.69381
 Alpha virt. eigenvalues --    2.70684   2.71243   2.72187   2.72416   2.72726
 Alpha virt. eigenvalues --    2.74836   2.76208   2.76351   2.76656   2.78521
 Alpha virt. eigenvalues --    2.79948   2.80663   2.81088   2.81660   2.82076
 Alpha virt. eigenvalues --    2.84111   2.84714   2.85192   2.86098   2.86482
 Alpha virt. eigenvalues --    2.87276   2.87752   2.88559   2.88854   2.91111
 Alpha virt. eigenvalues --    2.92601   2.95015   2.95585   2.97832   3.00057
 Alpha virt. eigenvalues --    3.04519   3.05570   3.09857   3.12036   3.14509
 Alpha virt. eigenvalues --    3.16901   3.17638   3.18462   3.18972   3.21384
 Alpha virt. eigenvalues --    3.22291   3.25357   3.26540   3.26675   3.27435
 Alpha virt. eigenvalues --    3.33351   3.33807   3.34117   3.35265   3.36312
 Alpha virt. eigenvalues --    3.37003   3.38853   3.39190   3.39890   3.43788
 Alpha virt. eigenvalues --    3.44363   3.45295   3.46081   3.48429   3.49631
 Alpha virt. eigenvalues --    3.51044   3.54289   3.55936   3.60444   3.75354
 Alpha virt. eigenvalues --    4.25004   4.27624   4.30288   4.36313   4.43809
 Alpha virt. eigenvalues --    4.47990   4.49242   4.51605   4.52945   4.53377
 Alpha virt. eigenvalues --    4.56579   4.57146   4.58382   4.59029   4.70480
 Alpha virt. eigenvalues --    4.71079   4.74339   4.79303   4.80633   4.90386
          Condensed to atoms (all electrons):
               1          2          3          4          5          6
     1  C   11.060509  -1.783827  -0.318881  -0.182256  -0.133087   0.001770
     2  C   -1.783827   9.105299   0.162364  -0.166978  -0.080685   0.020829
     3  O   -0.318881   0.162364   8.598233  -0.094154  -0.005091  -0.001072
     4  C   -0.182256  -0.166978  -0.094154   6.018967  -0.163785   0.045850
     5  C   -0.133087  -0.080685  -0.005091  -0.163785   5.664963   0.059876
     6  O    0.001770   0.020829  -0.001072   0.045850   0.059876   8.399561
     7  C    0.003053  -0.000376   0.003983  -0.038714  -0.059087   0.079310
     8  O    0.041359   0.465795  -0.157966  -0.052938   0.017654   0.000226
     9  C   -1.120879  -1.021572   0.131173  -0.112761   0.021110   0.001649
    10  C    0.648179   0.521359  -0.005061  -0.032707  -0.024923  -0.000778
    11  C   -0.158980  -0.230370   0.021117  -0.052621   0.009422   0.000644
    12  C   -2.461914   0.030773  -0.090795  -0.004747   0.035718  -0.000130
    13  C   -0.121932  -0.621393   0.026321   0.093969   0.000495  -0.000527
    14  O   -0.029384  -0.023679   0.000736  -0.003804  -0.000029   0.000000
    15  C    0.034697   0.088479  -0.001044  -0.001936   0.000212  -0.000003
    16  C   -0.001215  -0.014986   0.000048  -0.000325   0.000083   0.000000
    17  O   -0.000189  -0.000504   0.000000  -0.000005   0.000000   0.000000
    18  C    0.001276  -0.000158   0.000000   0.000001   0.000001   0.000000
    19  O    0.011445   0.017008  -0.002851   0.008205   0.001395  -0.000009
    20  H    0.400348  -0.127165   0.017328  -0.003137   0.002422   0.000000
    21  H   -0.007470   0.003810  -0.050005   0.412905  -0.037937   0.001808
    22  H    0.002147   0.004115   0.001673  -0.022393   0.389197  -0.059322
    23  H   -0.006342  -0.000165   0.002507  -0.062100   0.432949  -0.058730
    24  H   -0.000036  -0.000308  -0.000014  -0.021427   0.027128  -0.057585
    25  H   -0.000059   0.000376   0.000010   0.005791  -0.014854  -0.055554
    26  H    0.000151   0.000448   0.000018   0.011679  -0.016942  -0.054761
    27  H   -0.008254  -0.015784   0.005064  -0.004780   0.007217   0.000005
    28  H   -0.089709   0.005896  -0.000534   0.000012   0.000044   0.000000
    29  H   -0.032648  -0.018395   0.006959  -0.002670   0.000325  -0.000030
    30  H   -0.009193   0.001087  -0.000377  -0.001457   0.000773   0.000001
    31  H   -0.014845  -0.001937   0.000083  -0.000113   0.000145   0.000000
    32  H   -0.002584  -0.002420  -0.000002  -0.000418   0.000105   0.000000
    33  H   -0.180651  -0.023281  -0.000969   0.000324  -0.000319   0.000000
    34  H   -0.165610   0.023781  -0.001867  -0.001347  -0.000050   0.000000
    35  H   -0.151101  -0.019107   0.009829  -0.004313   0.005262   0.000000
    36  H    0.002634  -0.001645  -0.000003   0.000028   0.000005   0.000000
    37  H   -0.001653  -0.000241   0.000001  -0.000011  -0.000003   0.000000
    38  H    0.000369   0.001211   0.000000   0.000000   0.000000   0.000000
    39  H   -0.000562  -0.000508   0.000000  -0.000003   0.000000   0.000000
    40  H    0.000002  -0.000004   0.000000   0.000000   0.000000   0.000000
    41  H    0.000024   0.000017   0.000000   0.000000   0.000000   0.000000
    42  H   -0.000001  -0.000001   0.000000   0.000000   0.000000   0.000000
    43  H   -0.008314  -0.030903  -0.045528   0.403826  -0.017765   0.003813
    44  O    0.051074  -0.160473   0.000323  -0.000738  -0.000740  -0.000001
    45  H    0.004850   0.012274  -0.000042  -0.004459  -0.000354  -0.000001
    46  H    0.020828  -0.037590  -0.000001  -0.007126  -0.000141   0.000000
               7          8          9         10         11         12
     1  C    0.003053   0.041359  -1.120879   0.648179  -0.158980  -2.461914
     2  C   -0.000376   0.465795  -1.021572   0.521359  -0.230370   0.030773
     3  O    0.003983  -0.157966   0.131173  -0.005061   0.021117  -0.090795
     4  C   -0.038714  -0.052938  -0.112761  -0.032707  -0.052621  -0.004747
     5  C   -0.059087   0.017654   0.021110  -0.024923   0.009422   0.035718
     6  O    0.079310   0.000226   0.001649  -0.000778   0.000644  -0.000130
     7  C    4.972538   0.000009  -0.000925   0.000520   0.000561  -0.000214
     8  O    0.000009   8.067533   0.003845  -0.044498   0.000303   0.010547
     9  C   -0.000925   0.003845   8.469481  -1.489171   0.340355   0.313693
    10  C    0.000520  -0.044498  -1.489171   9.760470  -1.294910  -0.329169
    11  C    0.000561   0.000303   0.340355  -1.294910   6.803703  -0.047518
    12  C   -0.000214   0.010547   0.313693  -0.329169  -0.047518   8.001233
    13  C   -0.000351   0.002779   0.290154  -1.499753   0.028751  -0.211965
    14  O    0.000005   0.001289   0.142848  -0.411516   0.041558   0.002048
    15  C    0.000011  -0.005799  -0.122003   0.002257  -0.066601   0.010973
    16  C    0.000001   0.001001   0.028423  -0.080988  -0.008789   0.018990
    17  O    0.000000  -0.000001   0.000934   0.001569   0.000281   0.000145
    18  C    0.000000   0.000008  -0.001092   0.003280  -0.000614   0.000595
    19  O    0.000015   0.000576  -0.102338  -0.140057  -0.025697   0.019886
    20  H    0.000014   0.000130   0.029628  -0.010631   0.009290  -0.063077
    21  H   -0.001914   0.004312   0.000366  -0.002108  -0.000022  -0.000319
    22  H   -0.011443  -0.000167  -0.000757   0.000503  -0.003058   0.000758
    23  H   -0.004559   0.000041   0.004016  -0.000388   0.000884  -0.001057
    24  H    0.414511   0.000000   0.000005   0.000002   0.000002  -0.000001
    25  H    0.407803   0.000000   0.000087  -0.000039   0.000014   0.000023
    26  H    0.403155  -0.000001  -0.000083   0.000093  -0.000060  -0.000008
    27  H    0.000101  -0.000603   0.443288  -0.058036   0.004014  -0.055951
    28  H   -0.000002  -0.000090   0.469786  -0.076544  -0.027684   0.007856
    29  H    0.000103   0.001756   0.076646   0.277768  -0.046297   0.010179
    30  H    0.000014   0.000004   0.041006  -0.129881   0.472962   0.001035
    31  H    0.000001   0.000008   0.052016  -0.159036   0.471907   0.003118
    32  H    0.000001   0.000008   0.000899  -0.126717   0.473478  -0.000095
    33  H   -0.000002   0.000261   0.061797  -0.014463   0.000493   0.507704
    34  H   -0.000004   0.001091   0.002472  -0.007704  -0.000818   0.506560
    35  H    0.000062   0.000100   0.026399  -0.005397   0.002421   0.482829
    36  H    0.000000  -0.000081   0.001048  -0.021249   0.001466   0.000321
    37  H    0.000000   0.000027   0.002865   0.000245  -0.000381  -0.000103
    38  H    0.000000  -0.000002  -0.000715   0.003204   0.000954  -0.000087
    39  H    0.000000   0.000000   0.001376  -0.008131   0.002315  -0.000079
    40  H    0.000000   0.000000   0.000016   0.000018   0.000034   0.000002
    41  H    0.000000   0.000000  -0.000046   0.000137  -0.000009  -0.000012
    42  H    0.000000   0.000000   0.000004  -0.000035  -0.000001   0.000000
    43  H    0.000857   0.006773   0.007110   0.008457   0.001708  -0.000253
    44  O    0.000000   0.014363   0.049907  -0.052822   0.000053   0.011087
    45  H    0.000001   0.016684  -0.004695   0.011957   0.000161   0.004648
    46  H    0.000001   0.009832  -0.004532   0.038970   0.004936  -0.003725
              13         14         15         16         17         18
     1  C   -0.121932  -0.029384   0.034697  -0.001215  -0.000189   0.001276
     2  C   -0.621393  -0.023679   0.088479  -0.014986  -0.000504  -0.000158
     3  O    0.026321   0.000736  -0.001044   0.000048   0.000000   0.000000
     4  C    0.093969  -0.003804  -0.001936  -0.000325  -0.000005   0.000001
     5  C    0.000495  -0.000029   0.000212   0.000083   0.000000   0.000001
     6  O   -0.000527   0.000000  -0.000003   0.000000   0.000000   0.000000
     7  C   -0.000351   0.000005   0.000011   0.000001   0.000000   0.000000
     8  O    0.002779   0.001289  -0.005799   0.001001  -0.000001   0.000008
     9  C    0.290154   0.142848  -0.122003   0.028423   0.000934  -0.001092
    10  C   -1.499753  -0.411516   0.002257  -0.080988   0.001569   0.003280
    11  C    0.028751   0.041558  -0.066601  -0.008789   0.000281  -0.000614
    12  C   -0.211965   0.002048   0.010973   0.018990   0.000145   0.000595
    13  C    7.856539   0.221169  -0.449719  -0.081523   0.023507  -0.008027
    14  O    0.221169   8.541707  -0.042530  -0.059625  -0.001304   0.003568
    15  C   -0.449719  -0.042530   6.016387  -0.177370   0.053590  -0.031175
    16  C   -0.081523  -0.059625  -0.177370   5.649291   0.049271  -0.061180
    17  O    0.023507  -0.001304   0.053590   0.049271   8.399685   0.081261
    18  C   -0.008027   0.003568  -0.031175  -0.061180   0.081261   4.972209
    19  O    0.769124  -0.172291  -0.067699   0.020880   0.000340   0.000065
    20  H    0.009367   0.003069  -0.006980   0.001590  -0.000007   0.000019
    21  H    0.001423   0.000002   0.000022   0.000000   0.000000   0.000000
    22  H    0.002737   0.000001   0.000011   0.000001   0.000000   0.000000
    23  H   -0.000694   0.000000  -0.000001   0.000000   0.000000   0.000000
    24  H   -0.000001   0.000000   0.000000   0.000000   0.000000   0.000000
    25  H   -0.000012   0.000000   0.000000   0.000000   0.000000   0.000000
    26  H    0.000056   0.000000   0.000000   0.000000   0.000000   0.000000
    27  H   -0.008685  -0.001319  -0.000838  -0.000279   0.000000  -0.000002
    28  H    0.002818   0.005511  -0.001198   0.004085   0.000002   0.000056
    29  H   -0.031891   0.016463   0.000113   0.002734   0.000000   0.000013
    30  H   -0.021933  -0.000582  -0.000718   0.000315   0.000000  -0.000002
    31  H   -0.011972   0.006426  -0.002347   0.005538   0.000003   0.000049
    32  H    0.020166  -0.002042  -0.004022  -0.000927  -0.000001  -0.000002
    33  H    0.002465  -0.000105  -0.000155   0.000245   0.000000   0.000002
    34  H    0.000700  -0.000025  -0.000249   0.000046   0.000000   0.000000
    35  H   -0.001135   0.000020  -0.000047   0.000027   0.000000   0.000000
    36  H   -0.032118  -0.043690   0.437204  -0.027972   0.004166  -0.000102
    37  H    0.005600  -0.049606   0.395047  -0.034663   0.002262  -0.000792
    38  H   -0.001541   0.002772  -0.044268   0.409625  -0.058086  -0.006816
    39  H    0.002586   0.002400  -0.044525   0.418485  -0.060269  -0.008858
    40  H    0.000191   0.000020   0.006339  -0.014170  -0.055753   0.406543
    41  H    0.000514   0.000029   0.012364  -0.019165  -0.054524   0.404717
    42  H   -0.000270  -0.000017  -0.021827   0.027617  -0.058004   0.414621
    43  H   -0.006824   0.000001  -0.000129   0.000001   0.000000   0.000000
    44  O    0.020732   0.005613   0.004966   0.005729  -0.000146   0.000032
    45  H   -0.018292  -0.000116  -0.000158  -0.000485   0.000002   0.000003
    46  H   -0.007510   0.000652  -0.011481   0.000488   0.000002   0.000016
              19         20         21         22         23         24
     1  C    0.011445   0.400348  -0.007470   0.002147  -0.006342  -0.000036
     2  C    0.017008  -0.127165   0.003810   0.004115  -0.000165  -0.000308
     3  O   -0.002851   0.017328  -0.050005   0.001673   0.002507  -0.000014
     4  C    0.008205  -0.003137   0.412905  -0.022393  -0.062100  -0.021427
     5  C    0.001395   0.002422  -0.037937   0.389197   0.432949   0.027128
     6  O   -0.000009   0.000000   0.001808  -0.059322  -0.058730  -0.057585
     7  C    0.000015   0.000014  -0.001914  -0.011443  -0.004559   0.414511
     8  O    0.000576   0.000130   0.004312  -0.000167   0.000041   0.000000
     9  C   -0.102338   0.029628   0.000366  -0.000757   0.004016   0.000005
    10  C   -0.140057  -0.010631  -0.002108   0.000503  -0.000388   0.000002
    11  C   -0.025697   0.009290  -0.000022  -0.003058   0.000884   0.000002
    12  C    0.019886  -0.063077  -0.000319   0.000758  -0.001057  -0.000001
    13  C    0.769124   0.009367   0.001423   0.002737  -0.000694  -0.000001
    14  O   -0.172291   0.003069   0.000002   0.000001   0.000000   0.000000
    15  C   -0.067699  -0.006980   0.000022   0.000011  -0.000001   0.000000
    16  C    0.020880   0.001590   0.000000   0.000001   0.000000   0.000000
    17  O    0.000340  -0.000007   0.000000   0.000000   0.000000   0.000000
    18  C    0.000065   0.000019   0.000000   0.000000   0.000000   0.000000
    19  O    8.051237   0.001540  -0.000057   0.000016  -0.000002   0.000000
    20  H    0.001540   0.551502  -0.000005   0.000000   0.000000   0.000000
    21  H   -0.000057  -0.000005   0.549248   0.004488  -0.006935   0.000008
    22  H    0.000016   0.000000   0.004488   0.619178  -0.050301  -0.000133
    23  H   -0.000002   0.000000  -0.006935  -0.050301   0.614028  -0.000130
    24  H    0.000000   0.000000   0.000008  -0.000133  -0.000130   0.548320
    25  H    0.000000   0.000000  -0.000019  -0.002584   0.010120  -0.029300
    26  H    0.000000   0.000000   0.000002   0.010242  -0.002537  -0.029261
    27  H    0.000617   0.005156  -0.000011  -0.000024  -0.000005   0.000000
    28  H    0.000571  -0.004811   0.000000   0.000000   0.000000   0.000000
    29  H   -0.001763   0.000076   0.000007   0.000092   0.000002   0.000000
    30  H   -0.000103   0.000002   0.000000  -0.000002   0.000000   0.000000
    31  H   -0.000395   0.000009   0.000000   0.000000   0.000000   0.000000
    32  H    0.000112  -0.000002   0.000000   0.000000   0.000000   0.000000
    33  H    0.000002  -0.004942  -0.000001   0.000000   0.000000   0.000000
    34  H   -0.000055  -0.004436   0.000002   0.000000   0.000000   0.000000
    35  H   -0.000008   0.004488   0.000020   0.000000  -0.000002   0.000000
    36  H    0.010304   0.000037   0.000000   0.000000   0.000000   0.000000
    37  H    0.002275   0.000009   0.000000   0.000000   0.000000   0.000000
    38  H   -0.000128   0.000000   0.000000   0.000000   0.000000   0.000000
    39  H   -0.000028   0.000000   0.000000   0.000000   0.000000   0.000000
    40  H    0.000000   0.000000   0.000000   0.000000   0.000000   0.000000
    41  H    0.000000   0.000000   0.000000   0.000000   0.000000   0.000000
    42  H    0.000000   0.000000   0.000000   0.000000   0.000000   0.000000
    43  H    0.000513   0.000013  -0.031985  -0.007264   0.004558   0.000008
    44  O   -0.006445   0.002713   0.000021   0.000000   0.000000   0.000000
    45  H    0.000320  -0.000343   0.000004   0.000000   0.000000   0.000000
    46  H    0.002813  -0.000069   0.000001   0.000000   0.000000   0.000000
              25         26         27         28         29         30
     1  C   -0.000059   0.000151  -0.008254  -0.089709  -0.032648  -0.009193
     2  C    0.000376   0.000448  -0.015784   0.005896  -0.018395   0.001087
     3  O    0.000010   0.000018   0.005064  -0.000534   0.006959  -0.000377
     4  C    0.005791   0.011679  -0.004780   0.000012  -0.002670  -0.001457
     5  C   -0.014854  -0.016942   0.007217   0.000044   0.000325   0.000773
     6  O   -0.055554  -0.054761   0.000005   0.000000  -0.000030   0.000001
     7  C    0.407803   0.403155   0.000101  -0.000002   0.000103   0.000014
     8  O    0.000000  -0.000001  -0.000603  -0.000090   0.001756   0.000004
     9  C    0.000087  -0.000083   0.443288   0.469786   0.076646   0.041006
    10  C   -0.000039   0.000093  -0.058036  -0.076544   0.277768  -0.129881
    11  C    0.000014  -0.000060   0.004014  -0.027684  -0.046297   0.472962
    12  C    0.000023  -0.000008  -0.055951   0.007856   0.010179   0.001035
    13  C   -0.000012   0.000056  -0.008685   0.002818  -0.031891  -0.021933
    14  O    0.000000   0.000000  -0.001319   0.005511   0.016463  -0.000582
    15  C    0.000000   0.000000  -0.000838  -0.001198   0.000113  -0.000718
    16  C    0.000000   0.000000  -0.000279   0.004085   0.002734   0.000315
    17  O    0.000000   0.000000   0.000000   0.000002   0.000000   0.000000
    18  C    0.000000   0.000000  -0.000002   0.000056   0.000013  -0.000002
    19  O    0.000000   0.000000   0.000617   0.000571  -0.001763  -0.000103
    20  H    0.000000   0.000000   0.005156  -0.004811   0.000076   0.000002
    21  H   -0.000019   0.000002  -0.000011   0.000000   0.000007   0.000000
    22  H   -0.002584   0.010242  -0.000024   0.000000   0.000092  -0.000002
    23  H    0.010120  -0.002537  -0.000005   0.000000   0.000002   0.000000
    24  H   -0.029300  -0.029261   0.000000   0.000000   0.000000   0.000000
    25  H    0.596395  -0.044540   0.000000   0.000000   0.000000   0.000000
    26  H   -0.044540   0.596255   0.000000   0.000000   0.000000   0.000000
    27  H    0.000000   0.000000   0.564815  -0.031231  -0.005691   0.002860
    28  H    0.000000   0.000000  -0.031231   0.571592   0.005321  -0.000392
    29  H    0.000000   0.000000  -0.005691   0.005321   0.584900  -0.004738
    30  H    0.000000   0.000000   0.002860  -0.000392  -0.004738   0.557854
    31  H    0.000000   0.000000  -0.000232   0.003452   0.004693  -0.027627
    32  H    0.000000   0.000000   0.000020   0.000025  -0.003700  -0.026779
[...]
 730,-0.00006395,-0.00002453,-0.00001135,-0.00000190,-0.00002128,-0.000
 02472,0.00000141,-0.00007550,0.00010199,0.00000116,0.00000096,-0.00000
 363,-0.00000458,-0.00000011,0.00000276,0.00000183,-0.00000081,0.000006
 10,-0.00000018,-0.00000039,0.00000099,-0.00000024,0.00000171,-0.000000
 32,0.00000028,0.00000098,-0.00000031,-0.00000187,-0.00000044,0.0000003
 1,0.06365470,0.00015014,-0.00002983,-0.00011077,-0.00328131,-0.0011486
 8,-0.00008269,0.00855058,-0.01338267,0.01942928,-0.01802369,-0.0944509
 8,0.09352532,-0.00475930,-0.00850649,0.01865801,0.00111902,0.00096827,
 -0.00064739,-0.00022607,-0.00001924,-0.00022119,0.00075419,0.00106630,
 -0.00008420,-0.00003963,0.00002228,0.00011011,0.00012875,-0.00014777,0
 .00012916,-0.00002125,0.00002945,-0.00004228,-0.00000538,-0.00008847,-
 0.00008786,0.00008515,0.00004744,0.00002256,-0.00008156,-0.00001096,-0
 .00004226,0.00000113,0.00001968,0.00000347,-0.00000788,-0.00000259,0.0
 0001375,0.00000695,-0.00000230,-0.00000679,-0.00000555,0.00000411,0.00
 000136,-0.00004432,-0.00001699,-0.00004114,0.00007242,-0.00003979,-0.0
 0001900,0.00239429,0.01083573,-0.02055126,0.00077314,0.00059120,0.0001
 9199,-0.00265339,-0.00160555,-0.00006551,0.00000151,0.00002990,-0.0000
 6239,0.00022639,0.00006328,-0.00007613,-0.00000985,-0.00002085,0.00002
 308,-0.00000840,0.00004434,0.00002808,0.00001276,-0.00001376,-0.000047
 87,0.00004070,0.00002628,-0.00004754,0.00000501,-0.00002650,0.00001719
 ,-0.00001748,0.00001836,0.00000515,0.00001700,-0.00001217,-0.00001949,
 0.00005343,0.00002270,0.00003494,0.00002343,0.00002585,0.00000397,0.00
 000875,0.00005365,-0.00007894,-0.00000888,-0.00000142,0.00000324,0.000
 00123,-0.00000193,-0.00000302,-0.00000201,0.00000135,-0.00000608,0.000
 00226,-0.00000317,-0.00000109,0.00000016,-0.00000203,-0.00000025,-0.00
 000003,-0.00000033,-0.00000094,0.00000053,0.00000075,-0.00000017,0.014
 81411,0.10567322,-0.00017114,-0.00027630,-0.00024117,0.00301382,0.0039
 4741,0.00022873,-0.00809261,0.00465533,-0.00157376,0.03900575,0.096535
 58,-0.26965367,-0.00068436,-0.00132849,0.00209443,0.00070220,-0.000418
 61,0.00057403,0.00017120,-0.00020423,0.00026592,0.00071941,-0.00219321
 ,0.00084635,0.00010035,-0.00007074,0.00003712,-0.00004222,0.00001708,-
 0.00000413,0.00000240,-0.00000287,0.00001142,0.00000525,0.00002502,-0.
 00001407,0.00000993,0.00010963,-0.00006271,-0.00000555,-0.00002753,0.0
 0003276,0.00001036,0.00000949,-0.00000350,0.00000632,0.00000232,-0.000
 00773,-0.00000813,-0.00000405,0.00000389,0.00000154,-0.00000032,-0.000
 00142,-0.00000337,-0.00008574,0.00003098,-0.00008592,0.00005545,-0.000
 01108,0.00455995,0.00931011,-0.01879514,0.00041396,0.00017037,0.001015
 67,-0.00100291,-0.00021820,0.00132277,0.00006951,0.00004753,-0.0000270
 4,-0.00015429,-0.00004209,-0.00005391,-0.00001714,-0.00002066,-0.00001
 400,-0.00000097,-0.00005281,-0.00000524,-0.00001976,-0.00003563,-0.000
 00442,-0.00000533,0.00002981,-0.00000454,-0.00000136,-0.00000506,-0.00
 000538,0.00000175,0.,-0.00000066,-0.00000173,0.00000347,0.00000694,-0.
 00003182,-0.00000862,0.00000387,0.00001371,0.00001364,0.00000154,-0.00
 000534,-0.00005804,0.00004492,-0.00000300,0.00000091,-0.00000205,-0.00
 000212,-0.00000021,0.00000155,0.00000096,0.00000010,0.00000387,0.00000
 076,-0.00000165,0.00000042,0.00000015,0.00000003,-0.00000033,0.0000000
 8,0.00000062,0.00000082,-0.00000100,-0.00000020,0.00000019,-0.03845790
 ,-0.10987799,0.28396262,-0.00010435,-0.00046715,0.00052446,0.00076111,
 0.00879241,-0.00095574,-0.00319993,-0.00294038,-0.00054400,0.00106545,
 -0.00050895,0.00025703,0.00042999,0.00007946,0.00005203,-0.00059031,-0
 .00009770,-0.00007162,0.00029889,0.00021670,0.00000722,-0.00600221,-0.
 00798825,0.00406860,0.00016523,0.00023491,0.00044586,-0.00008597,0.000
 11964,-0.00024682,0.00017388,0.00000691,-0.00010227,0.00017812,-0.0002
 8317,-0.00031568,-0.00250093,0.00009902,-0.00091072,0.00226147,0.00034
 947,0.00069954,-0.00166620,-0.00196697,-0.00041550,0.00038951,0.000246
 54,0.00039567,-0.00033872,0.00032803,-0.00010856,0.00037516,-0.0002236
 0,0.00020235,0.00197918,0.00015043,0.00032466,-0.00069941,0.00015438,-
 0.00011002,0.00002958,0.00008981,-0.00006009,-0.00005903,-0.00002571,-
 0.00002570,-0.00005849,-0.00001726,0.00000896,-0.00005769,0.00000777,-
 0.00000946,-0.00002351,-0.00004414,0.00002937,-0.00001719,-0.00005573,
 -0.00002110,0.00002128,-0.00000094,-0.00015599,0.00004755,-0.00025372,
 -0.00003862,0.00023077,0.00007719,0.00013481,0.00005164,0.00007331,0.0
 0003713,-0.00000724,-0.00010742,0.00000548,-0.00003057,-0.00005067,-0.
 00007526,0.00005947,-0.00017883,0.00021857,-0.00005269,0.00005328,-0.0
 0009372,-0.00003549,-0.00000199,0.00008116,0.00074549,0.00008649,0.000
 15980,0.00006509,0.00039996,0.00011301,-0.00002537,-0.00009170,-0.0000
 6615,-0.00026357,0.00027332,-0.00007532,-0.00003429,0.00010074,-0.0000
 0472,-0.00000904,0.00000634,-0.00005553,-0.00004012,-0.00002283,-0.000
 00651,-0.00001694,0.00010710,0.00004888,0.50800626,0.00159629,0.000762
 96,0.00063647,0.00266508,-0.00049721,0.00046729,-0.00152910,0.00040261
 ,-0.00052199,0.00053469,-0.00053924,0.00014395,0.00024885,-0.00003607,
 0.00000552,-0.00036775,0.00008224,-0.00005158,0.00011533,0.00006910,-0
 .00001169,-0.00345498,0.00173513,0.00090246,-0.00061416,0.00015159,0.0
 0006316,0.00043811,-0.00005900,0.00026211,-0.00017632,0.00015317,0.000
 19155,-0.00077687,-0.00033948,-0.00040069,0.00061782,0.00386507,-0.001
 52066,0.00105775,-0.00037017,-0.00009892,-0.00096947,0.00037386,0.0003
 5858,-0.00082433,-0.00016559,-0.00017438,0.00089603,0.00001383,0.00015
 220,-0.00035451,0.00021651,-0.00024757,-0.00046413,-0.00468494,-0.0028
 1916,-0.00076868,0.00031762,-0.00107441,-0.00006860,0.00003733,0.00003
 235,0.00000150,0.00003674,0.00003047,0.00000261,0.00001730,-0.00002092
 ,-0.00004118,0.00000476,-0.00000576,-0.00000603,-0.00001955,0.00000327
 ,-0.00000533,-0.00001634,0.00000722,-0.00012854,-0.00035129,-0.0000736
 1,0.00007519,0.00007314,0.00000060,0.00002041,0.00003698,0.00002516,-0
 .00005973,-0.00014566,-0.00001346,0.00003287,-0.00001815,-0.00000201,0
 .00005337,0.00002014,-0.00004872,0.00005398,0.00002078,-0.00001961,0.0
 0002319,0.00006074,0.00013140,-0.00012723,-0.00017508,0.00040042,-0.00
 069590,-0.00064905,0.00028126,0.00009554,-0.00032049,-0.00019002,0.000
 01158,0.00006330,-0.00004508,0.00016894,-0.00006570,0.00003686,0.00002
 317,-0.00005487,0.00003128,0.00000075,-0.00004818,0.00006261,0.0001097
 0,-0.00000112,0.00000241,-0.00007957,-0.00000531,-0.00005348,0.0202587
 7,0.05784051,-0.00067541,-0.00003426,0.00015773,-0.00129001,-0.0026448
 3,0.00011176,0.00187790,0.00094147,0.00001730,-0.00050818,0.00036308,-
 0.00026584,-0.00018788,-0.00007716,-0.00007229,0.00027618,0.00002810,0
 .00009231,-0.00010955,-0.00009170,-0.00003011,0.00304193,0.00271336,0.
 00154090,0.00024543,-0.00020619,-0.00066079,0.00010702,-0.00008040,0.0
 0028204,-0.00019231,0.00004674,0.00025704,0.00013346,0.00004722,0.0001
 4889,-0.00039762,0.00483249,-0.00432171,0.00133927,-0.00128165,0.00161
 150,-0.00004135,0.00010290,0.00000396,-0.00021329,-0.00006928,-0.00049
 404,0.00027143,-0.00012724,0.00027452,-0.00016701,0.00010449,-0.000215
 37,-0.00057065,-0.00659169,0.00008876,0.00027204,-0.00078349,-0.000318
 73,0.00000536,-0.00003045,0.00005020,0.00003421,0.00002895,0.00001971,
 -0.00000179,-0.00001410,0.00002344,0.00002954,-0.00000243,0.00000027,0
 .00000616,0.00001256,-0.00000003,0.00000710,0.00003081,0.00001196,-0.0
 0002266,0.00016762,0.00033185,-0.00000954,0.00007510,0.00006229,0.0000
 3945,0.00002129,-0.00000956,-0.00006619,-0.00013674,-0.00005333,0.0000
 3348,-0.00000645,-0.00002649,0.00002496,0.00010541,0.00010554,-0.00005
 886,-0.00000841,-0.00004903,-0.00012947,-0.00001120,0.00020861,0.00010
 757,0.00011955,-0.00010175,-0.00022075,0.00036038,-0.00046182,-0.00000
 155,0.00005060,0.00004055,0.00007406,-0.00006260,0.00017250,0.00008502
 ,-0.00006963,0.00009763,0.00001521,-0.00003002,0.00002382,0.00001199,-
 0.00002459,0.00007560,0.00002991,0.00000110,0.00000473,0.00005972,-0.0
 0005651,0.00002834,-0.10979138,0.15181194,0.54782351,0.00117264,0.0008
 8605,-0.00045528,-0.00045576,-0.01240604,0.00190521,0.00442688,0.00435
 964,0.00032750,-0.00146588,0.00071360,-0.00039234,-0.00050466,-0.00009
 953,-0.00005893,0.00066805,0.00009661,0.00008840,-0.00032070,-0.000238
 16,-0.00000865,-0.00244630,0.00867298,-0.00210666,-0.00060766,-0.00012
 256,-0.00045381,0.00026067,-0.00011679,0.00014794,-0.00019127,0.000015
 05,0.00013100,-0.00069785,0.00027050,0.00027544,0.00093132,0.00199325,
 -0.00084949,-0.00015267,-0.00050844,0.00018560,0.00003365,0.00031389,0
 .00011499,-0.00015375,0.00000364,-0.00006697,0.00017787,-0.00012870,0.
 00004608,-0.00014152,0.00009845,-0.00007068,-0.00066679,-0.00209801,-0
 .00019976,0.00012622,0.00046170,-0.00016693,-0.00002345,-0.00011408,0.
 00007633,0.00007126,0.00003118,0.00002686,0.00006471,0.00001497,-0.000
 00460,0.00006764,-0.00000600,0.00000967,0.00002580,0.00004802,-0.00002
 937,0.00001985,0.00006120,0.00002089,-0.00001901,-0.00019727,0.0000490
 7,-0.00005958,0.00028443,0.00011915,-0.00007910,0.00000509,-0.00013405
 ,-0.00003836,-0.00010055,-0.00003512,0.00000929,0.00005295,-0.00000453
 ,0.00002644,0.00004968,0.00006434,-0.00004273,0.00021463,-0.00027815,0
 .00012206,-0.00005905,0.00010547,-0.00000776,-0.00009686,0.00009590,-0
 .00033394,0.00010038,0.00001076,-0.00002905,-0.00003628,-0.00001976,0.
 00001323,0.00003142,0.00001230,0.00006963,-0.00007644,-0.00000364,0.00
 001162,-0.00004089,-0.00000220,0.00000334,-0.00000156,0.00001997,0.000
 01746,0.00000714,0.00000349,0.00002629,-0.00013755,-0.00003579,-0.4556
 9771,-0.00132440,0.14967535,0.45651497,-0.00098827,-0.00054954,-0.0002
 0187,-0.00439461,-0.00549432,0.00051196,0.00261057,0.00115965,0.000660
 39,-0.00078778,0.00062723,-0.00019669,-0.00030486,-0.00001928,-0.00002
 528,0.00041732,-0.00002543,0.00005783,-0.00015232,-0.00010997,0.000001
 54,0.00420225,0.00043192,-0.00147863,0.00030533,-0.00019098,-0.0003619
 8,-0.00007820,0.00000111,0.00003876,-0.00004346,-0.00005319,0.00000466
 ,0.00021083,0.00030526,0.00037749,0.00088615,-0.00056098,-0.00036411,-
 0.00074449,-0.00001086,0.00005392,0.00076845,0.00039153,-0.00002337,0.
 00008308,-0.00007752,-0.00012847,-0.00016790,-0.00005178,-0.00000641,0
 .00003186,-0.00001467,0.00002050,-0.00066988,-0.00032044,0.00018598,0.
 00071919,-0.00142641,0.00075207,0.00003634,-0.00005035,-0.00000282,0.0
 0002548,-0.00001211,-0.00000848,0.00001828,-0.00000463,0.00001323,0.00
 004508,-0.00000315,0.00000672,0.00001032,0.00002505,-0.00000943,0.0000
 0854,0.00002616,0.00000159,0.00004247,0.00020466,0.00016653,-0.0000537
 7,0.00009590,0.00003368,-0.00009673,-0.00003851,-0.00008315,-0.0000027
 7,0.00000765,-0.00001725,-0.00000436,0.00004740,-0.00000211,-0.0000070
 3,0.00003634,0.00007451,-0.00005034,0.00007335,-0.00011989,-0.00001524
 ,-0.00005430,0.00002462,0.00009024,0.00010361,-0.00022777,-0.00027908,
 0.00001706,-0.00005558,-0.00003848,-0.00009263,-0.00000765,0.00000577,
 0.00000830,0.00004300,0.00004441,-0.00005686,0.00002700,-0.00000013,-0
 .00000028,-0.00000647,0.00000236,0.00001034,-0.00000393,-0.00001672,0.
 00000131,0.00000249,0.00007558,-0.00003519,0.00002379,-0.01638351,-0.0
 1019585,-0.00631970,0.00095673,0.01481482,0.00036810,-0.00000632,-0.00
 035178,0.00101320,0.00321837,-0.00047853,-0.00168084,-0.00104344,0.000
 59284,0.00046360,-0.00031312,0.00026235,0.00015114,0.00004663,0.000051
 18,-0.00021207,-0.00001635,-0.00007258,0.00008265,0.00006910,0.0000204
 0,-0.00094101,-0.00259724,-0.00374868,-0.00014530,0.00000706,0.0003716
 5,-0.00004055,-0.00003983,0.00009880,0.00009170,0.00000325,-0.00014449
 ,0.00004791,0.00012324,-0.00000633,-0.00012739,-0.00187572,0.00108756,
 -0.00032960,0.00042537,-0.00054096,0.00000233,-0.00006080,0.00005177,0
 .00010086,-0.00002359,0.00011922,-0.00013524,0.00009494,-0.00008694,0.
 00010112,-0.00006319,0.00009113,-0.00016057,0.00141183,-0.00009449,-0.
 00025346,0.00075072,0.00033823,-0.00000743,0.00001595,-0.00005584,-0.0
 0002996,-0.00002505,-0.00001378,0.00000176,0.00001488,-0.00002019,-0.0
 0002312,0.00000165,0.,-0.00000423,-0.00000953,0.00000038,-0.00000557,-
 0.00002276,-0.00000823,0.00001593,-0.00006205,-0.00013525,0.00001285,-
 0.00008239,-0.00007094,-0.00007706,-0.00005064,-0.00001885,0.00003414,
 0.00007015,0.00003476,-0.00002049,0.00001357,0.00002045,-0.00000510,-0
 .00004993,-0.00005762,0.00003295,-0.00005211,0.00003323,0.00006980,0.0
 0003011,-0.00022017,-0.00004112,-0.00007556,-0.00001143,0.00019182,-0.
 00021558,-0.00012515,0.00001276,0.00006036,0.00002111,-0.00002050,-0.0
 0000772,-0.00004521,-0.00004376,0.00004367,-0.00002027,-0.00000960,0.0
 0002390,-0.00000587,-0.00000337,0.00000482,-0.00002845,-0.00001376,-0.
 00000280,-0.00000354,-0.00004454,0.00004389,-0.00003624,0.09536809,-0.
 01112551,-0.08061327,-0.14053841,0.01167514,0.09914937,0.00001434,-0.0
 0001965,-0.00009718,-0.00066591,-0.00139929,0.00024594,0.00045201,0.00
 031953,0.00017208,-0.00014238,0.00002887,0.00001561,-0.00010223,-0.000
 01060,-0.00001344,0.00014631,0.00003510,0.00000861,-0.00008683,-0.0000
 5804,0.00000094,-0.00024638,0.00037798,-0.00123206,-0.00011017,-0.0001
 5244,-0.00006854,0.00003805,-0.00005093,0.00039707,-0.00004623,0.00001
 845,-0.00002868,-0.00000982,0.00008261,0.00008436,0.00167504,-0.001190
 98,0.00125727,-0.00190205,-0.00008111,-0.00099376,0.00113524,0.0015931
 2,0.00043857,-0.00030441,-0.00030192,-0.00035475,0.00018567,-0.0001491
 6,0.00013766,-0.00020955,0.00011386,-0.00014740,-0.00166179,0.00049228
 ,-0.00051057,0.00014658,-0.00007692,0.00004285,-0.00000092,-0.00001151
 ,-0.00000269,0.00000976,0.00000162,0.00000874,0.00002180,0.00000991,-0
 .00000920,0.00001322,-0.00000306,0.00000326,0.00000741,0.00001282,-0.0
 0001059,0.00000426,0.00001378,0.00000629,-0.00001261,0.00000408,0.0000
 5361,-0.00000679,0.00007357,-0.00003426,-0.00020298,-0.00007178,-0.000
 06978,-0.00002108,0.00000034,-0.00000299,-0.00000399,0.00007513,0.0000
 0476,0.00001829,0.00000555,0.00001677,-0.00001609,0.00003109,-0.000052
 69,-0.00000063,-0.00000575,0.00001643,0.00001203,0.00000761,-0.0000249
 6,-0.00097270,0.00039343,-0.00069928,-0.00008649,-0.00004327,0.0000449
 5,0.00004271,-0.00000571,0.00009533,0.00018435,-0.00017656,0.00009120,
 0.00001837,-0.00004838,0.00001249,0.00000940,-0.00001568,0.00004750,0.
 00002658,0.00001148,0.00000139,-0.00002781,-0.00001661,-0.00002447,-0.
 04571814,-0.01626472,-0.04314829,-0.00072537,0.01368332,0.04675134,0.0
 4912192,-0.00027559,-0.00029593,-0.00011987,-0.00042994,0.00141880,-0.
 00007422,-0.00003585,-0.00056712,0.00001740,-0.00009835,0.00013025,-0.
 00002770,-0.00005479,0.00006622,0.00002376,0.00007905,-0.00006397,0.00
 000837,-0.00001451,0.00000427,0.00001044,-0.00040340,-0.00137764,0.000
 10644,0.00023346,0.00009915,0.00043913,-0.00028823,0.00023246,-0.00050
 264,0.00026878,-0.00014418,-0.00032983,0.00018742,-0.00000208,0.000001
 61,0.00046458,-0.00856587,0.00422044,-0.00260446,0.00138924,-0.0014451
 9,0.00125362,-0.00003568,-0.00035256,0.00063558,0.00015379,0.00035647,
 -0.00070798,-0.00000554,-0.00020196,0.00024952,-0.00017704,0.00021649,
 0.00062740,0.00495592,-0.00045582,0.00005210,0.00021421,0.00055827,0.0
 0002944,-0.00000649,-0.00002654,-0.00001446,-0.00002800,-0.00002496,-0
 .00000731,-0.00001167,0.00000748,0.00001033,-0.00000252,0.00000068,-0.
 00000058,0.00000259,0.00000187,-0.00000076,-0.00000130,-0.00000815,0.0
 0009174,0.00006762,-0.00022768,-0.00003729,-0.00007856,-0.00002798,-0.
 00000882,-0.00000472,-0.00001038,0.00007841,0.00020036,0.00004760,-0.0
 0004127,0.00001870,0.00001696,-0.00005425,-0.00008125,-0.00002960,0.00
 001146,-0.00000603,0.00004406,0.00002688,-0.00002181,-0.00012149,-0.00
 000013,0.00002731,-0.00005601,0.00079362,-0.00004709,0.00023504,-0.000
 06967,0.00005722,0.00006317,-0.00006211,0.00001019,-0.00005113,-0.0001
 2783,0.00004327,-0.00006155,-0.00001407,0.00003865,-0.00002584,-0.0000
 0775,0.00003760,-0.00005905,-0.00008737,0.00000394,-0.00000922,0.00002
 026,0.00003082,0.00002905,-0.00060137,-0.04759705,-0.14320444,-0.00183
 403,0.00106057,-0.00032734,0.00276853,0.04885842,0.00025276,0.00020071
 ,0.00022082,0.00098936,0.00176426,-0.00009568,-0.00098049,-0.00058287,
 -0.00022952,0.00025545,-0.00016413,0.00011291,0.00010669,0.00004064,0.
 00003491,-0.00014939,-0.00002587,-0.00004007,0.00006652,0.00005393,0.0
 0001153,-0.00106045,-0.00119493,0.00069178,0.00010866,0.00022616,0.000
 34670,0.00001102,0.00034158,-0.00043165,0.00008130,-0.00005071,-0.0001
 2341,-0.00011178,-0.00016390,-0.00014280,0.00151208,-0.00373003,0.0037
 7107,-0.00206641,0.00135368,-0.00157564,0.00066559,0.00076160,0.000383
 05,0.00000043,-0.00013798,0.00000569,-0.00007042,0.00000088,-0.0000981
 9,0.00001279,-0.00001617,0.00004199,-0.00001774,0.00274231,-0.00345715
 ,-0.00005196,0.00030897,-0.00034837,0.00000401,0.00002373,-0.00002199,
 -0.00001828,-0.00001494,-0.00001084,-0.00000713,0.,-0.00000657,-0.0000
 1558,0.00000132,-0.00000058,-0.00000518,-0.00000880,0.00000223,-0.0000
 0421,-0.00001704,-0.00000659,0.00000396,-0.00004514,-0.00017220,0.0000
 0569,-0.00004869,-0.00003941,0.00000489,0.00001603,0.00004441,0.000033
 36,0.00007573,0.00002274,-0.00001063,0.00000734,0.00000197,-0.00001339
 ,-0.00006037,-0.00005082,0.00002803,-0.00001968,0.00005075,0.00001082,
 0.00001192,-0.00004923,-0.00004330,-0.00003772,0.00008933,-0.00059458,
 -0.00007051,0.00030982,0.00001673,-0.00032848,-0.00014453,-0.00003618,
 0.00004563,-0.00005764,0.00006044,-0.00005376,0.00001433,-0.00000072,-
 0.00000101,-0.00000384,-0.00000302,0.00000741,-0.00001973,-0.00000399,
 0.00000387,0.00000137,-0.00001754,0.00003621,0.00000303,0.01107782,-0.
 13752130,-0.46597308,-0.00759657,-0.00510633,-0.01532933,-0.00242944,0
 .14137644,0.48226844||-0.00000014,0.00000273,-0.00000512,0.00000046,-0
 .00000762,0.00000157,-0.00000238,-0.00000052,0.00000674,0.00000019,-0.
 00000035,-0.00000216,0.00000215,-0.00000422,-0.00000011,0.00000011,0.0
 0000256,-0.00000022,-0.00000226,-0.00000092,-0.00000124,-0.00000055,-0
 .00000084,-0.00000212,-0.00000070,-0.00000494,0.00000135,0.00000168,0.
 00000877,-0.00000414,0.00000074,-0.00000125,-0.00000747,-0.00000204,-0
 .00001064,0.00000726,-0.00000198,-0.00000347,0.00000362,0.00000248,0.0
 0000543,-0.00000201,-0.00000256,0.00000220,0.00000198,-0.00000165,-0.0
 0000105,0.00000138,0.00000147,0.00000122,-0.00000052,0.00000103,0.0000
 0139,0.00000249,0.00000402,0.00000618,0.00000152,-0.00000225,-0.000002
 65,0.00000214,-0.00000082,-0.00000350,0.00000371,-0.00000003,0.0000010
 4,-0.00000195,-0.00000110,-0.00000332,-0.00000303,0.00000137,0.0000001
 3,0.00000003,-0.00000010,-0.00000253,-0.00000321,0.00000031,0.00000158
 ,-0.00000245,0.00000011,0.00000040,-0.00000505,-0.00000080,-0.00000011
 ,-0.00000435,0.00000145,0.00000323,0.00000021,0.00000127,0.00000549,-0
 .00000593,0.00000017,0.00000547,-0.00000557,0.00000090,0.00000742,-0.0
 0000309,-0.00000122,-0.00000553,-0.00000351,-0.00000110,-0.00000792,-0
 .00000002,-0.00000013,-0.00000522,-0.00000409,-0.00000021,0.00000091,0
 .00000338,0.00000127,0.00000553,0.00000248,0.00000078,-0.00000259,-0.0
 0000047,-0.00000006,0.00000227,-0.00000209,-0.00000006,0.00000076,-0.0
 0000063,-0.00000048,-0.00000292,0.00000046,-0.00000086,0.00000005,0.00
 000217,0.00000031,0.00000235,0.00000466,0.00000271,-0.00000242,0.00000
 758,0.00000149,0.00000179,0.00001525,-0.00000298,0.00000562,0.00000055
 |||@


 IN SO FAR AS QUANTUM MECHANICS IS CORRECT, CHEMICAL 
 QUESTIONS ARE PROBLEMS IN APPLIED MATHEMATICS.

                    -- EYRING, WALTER, & KIMBALL, 1944
 Job cpu time:       0 days  1 hours 25 minutes  3.0 seconds.
 File lengths (MBytes):  RWF=   1186 Int=      0 D2E=      0 Chk=     22 Scr=      1
 Normal termination of Gaussian 09 at Sat Apr 16 22:45:11 2022.
